LAMMPS (17 Nov 2016)
#package omp 40
#suffix omp
boundary	p p p
atom_style atomic
   # I opened the file in ovito and exported the first frame to LAMMPS Data format. This is the file that contains 
   # number of atoms, atom types, box size etc. So we just open that file here.
read_data LammpsDump/fracture.data
  orthogonal box = (-18.4723 -30.8756 -12.931) to (1019.02 431.526 12.931)
  1 by 1 by 1 MPI processor grid
  reading atoms ...
  121278 atoms
pair_style 	zero 5.0
pair_coeff	* * 
mass 1 1.0
mass 2 1.0
mass 3 1.0
mass 4 1.0
thermo_style custom step temp etotal
thermo 1
   # This command is what you use when you have divided the file into smaller file. These should be
   # generated by the rerunworker. 
rerun LammpsDump/fracture.7498000.dump first 7498000 last 7498010 dump x y z
WARNING: No fixes defined, atoms won't move (../verlet.cpp:55)
Neighbor list info ...
  1 neighbor list requests
  update every 1 steps, delay 10 steps, check yes
  max neighbors/atom: 2000, page size: 100000
  master list distance cutoff = 5.3
  ghost atom cutoff = 5.3
  binsize = 2.65 -> bins = 392 175 10
Memory usage per processor = 21.2524 Mbytes
Step Temp TotEng 
 7498000            0            0 
Loop time of 0.25732 on 1 procs for 1 steps with 121278 atoms

Performance: 1678.844 tau/day, 3.886 timesteps/s
103.2% CPU use with 1 MPI tasks x no OpenMP threads

MPI task timing breakdown:
Section |  min time  |  avg time  |  max time  |%varavg| %total
---------------------------------------------------------------
Pair    | 0          | 0          | 0          |   0.0 |  0.00
Neigh   | 0          | 0          | 0          |   0.0 |  0.00
Comm    | 0          | 0          | 0          |   0.0 |  0.00
Output  | 0          | 0          | 0          |   0.0 |  0.00
Modify  | 0          | 0          | 0          |   0.0 |  0.00
Other   |            | 0.2573     |            |       |100.00

Nlocal:    121278 ave 121278 max 121278 min
Histogram: 1 0 0 0 0 0 0 0 0 0
Nghost:    0 ave 0 max 0 min
Histogram: 1 0 0 0 0 0 0 0 0 0
Neighs:    1.15981e+006 ave 1.15981e+006 max 1.15981e+006 min
Histogram: 1 0 0 0 0 0 0 0 0 0

Total # of neighbors = 1159814
Ave neighs/atom = 9.56327
Neighbor list builds = 0
Dangerous builds = 0
rerun LammpsDump/fracture.7498000.dump first 7498000 last 7498010 dump x y z
WARNING: No fixes defined, atoms won't move (../verlet.cpp:55)
Memory usage per processor = 21.2524 Mbytes
Step Temp TotEng 
 7498000            0            0 
Loop time of 0.265772 on 1 procs for 1 steps with 121278 atoms

Performance: 1625.453 tau/day, 3.763 timesteps/s
217.5% CPU use with 1 MPI tasks x no OpenMP threads

MPI task timing breakdown:
Section |  min time  |  avg time  |  max time  |%varavg| %total
---------------------------------------------------------------
Pair    | 0          | 0          | 0          |   0.0 |  0.00
Neigh   | 0          | 0          | 0          |   0.0 |  0.00
Comm    | 0          | 0          | 0          |   0.0 |  0.00
Output  | 0          | 0          | 0          |   0.0 |  0.00
Modify  | 0          | 0          | 0          |   0.0 |  0.00
Other   |            | 0.2658     |            |       |100.00

Nlocal:    121278 ave 121278 max 121278 min
Histogram: 1 0 0 0 0 0 0 0 0 0
Nghost:    0 ave 0 max 0 min
Histogram: 1 0 0 0 0 0 0 0 0 0
Neighs:    1.15981e+006 ave 1.15981e+006 max 1.15981e+006 min
Histogram: 1 0 0 0 0 0 0 0 0 0

Total # of neighbors = 1159814
Ave neighs/atom = 9.56327
Neighbor list builds = 0
Dangerous builds = 0
rerun LammpsDump/fracture.7498150.dump first 7498150 last 7498160 dump x y z
WARNING: No fixes defined, atoms won't move (../verlet.cpp:55)
Memory usage per processor = 21.2524 Mbytes
Step Temp TotEng 
 7498150            0            0 
Loop time of 0.251725 on 1 procs for 1 steps with 121278 atoms

Performance: 1716.159 tau/day, 3.973 timesteps/s
198.6% CPU use with 1 MPI tasks x no OpenMP threads

MPI task timing breakdown:
Section |  min time  |  avg time  |  max time  |%varavg| %total
---------------------------------------------------------------
Pair    | 0          | 0          | 0          |   0.0 |  0.00
Neigh   | 0          | 0          | 0          |   0.0 |  0.00
Comm    | 0          | 0          | 0          |   0.0 |  0.00
Output  | 0          | 0          | 0          |   0.0 |  0.00
Modify  | 0          | 0          | 0          |   0.0 |  0.00
Other   |            | 0.2517     |            |       |100.00

Nlocal:    121278 ave 121278 max 121278 min
Histogram: 1 0 0 0 0 0 0 0 0 0
Nghost:    0 ave 0 max 0 min
Histogram: 1 0 0 0 0 0 0 0 0 0
Neighs:    1.16072e+006 ave 1.16072e+006 max 1.16072e+006 min
Histogram: 1 0 0 0 0 0 0 0 0 0

Total # of neighbors = 1160720
Ave neighs/atom = 9.57074
Neighbor list builds = 0
Dangerous builds = 0
rerun LammpsDump/fracture.7498300.dump first 7498300 last 7498310 dump x y z
WARNING: No fixes defined, atoms won't move (../verlet.cpp:55)
Memory usage per processor = 21.2524 Mbytes
Step Temp TotEng 
 7498300            0            0 
Loop time of 0.261252 on 1 procs for 1 steps with 121278 atoms

Performance: 1653.576 tau/day, 3.828 timesteps/s
239.2% CPU use with 1 MPI tasks x no OpenMP threads

MPI task timing breakdown:
Section |  min time  |  avg time  |  max time  |%varavg| %total
---------------------------------------------------------------
Pair    | 0          | 0          | 0          |   0.0 |  0.00
Neigh   | 0          | 0          | 0          |   0.0 |  0.00
Comm    | 0          | 0          | 0          |   0.0 |  0.00
Output  | 0          | 0          | 0          |   0.0 |  0.00
Modify  | 0          | 0          | 0          |   0.0 |  0.00
Other   |            | 0.2613     |            |       |100.00

Nlocal:    121278 ave 121278 max 121278 min
Histogram: 1 0 0 0 0 0 0 0 0 0
Nghost:    0 ave 0 max 0 min
Histogram: 1 0 0 0 0 0 0 0 0 0
Neighs:    1.16149e+006 ave 1.16149e+006 max 1.16149e+006 min
Histogram: 1 0 0 0 0 0 0 0 0 0

Total # of neighbors = 1161487
Ave neighs/atom = 9.57706
Neighbor list builds = 0
Dangerous builds = 0
rerun LammpsDump/fracture.7498450.dump first 7498450 last 7498460 dump x y z
WARNING: No fixes defined, atoms won't move (../verlet.cpp:55)
Memory usage per processor = 21.2524 Mbytes
Step Temp TotEng 
 7498450            0            0 
Loop time of 0.257247 on 1 procs for 1 steps with 121278 atoms

Performance: 1679.320 tau/day, 3.887 timesteps/s
182.2% CPU use with 1 MPI tasks x no OpenMP threads

MPI task timing breakdown:
Section |  min time  |  avg time  |  max time  |%varavg| %total
---------------------------------------------------------------
Pair    | 0          | 0          | 0          |   0.0 |  0.00
Neigh   | 0          | 0          | 0          |   0.0 |  0.00
Comm    | 0          | 0          | 0          |   0.0 |  0.00
Output  | 0          | 0          | 0          |   0.0 |  0.00
Modify  | 0          | 0          | 0          |   0.0 |  0.00
Other   |            | 0.2572     |            |       |100.00

Nlocal:    121278 ave 121278 max 121278 min
Histogram: 1 0 0 0 0 0 0 0 0 0
Nghost:    0 ave 0 max 0 min
Histogram: 1 0 0 0 0 0 0 0 0 0
Neighs:    1.16208e+006 ave 1.16208e+006 max 1.16208e+006 min
Histogram: 1 0 0 0 0 0 0 0 0 0

Total # of neighbors = 1162084
Ave neighs/atom = 9.58199
Neighbor list builds = 0
Dangerous builds = 0
rerun LammpsDump/fracture.7498600.dump first 7498600 last 7498610 dump x y z
WARNING: No fixes defined, atoms won't move (../verlet.cpp:55)
Memory usage per processor = 21.2524 Mbytes
Step Temp TotEng 
 7498600            0            0 
Loop time of 0.257247 on 1 procs for 1 steps with 121278 atoms

Performance: 1679.319 tau/day, 3.887 timesteps/s
176.1% CPU use with 1 MPI tasks x no OpenMP threads

MPI task timing breakdown:
Section |  min time  |  avg time  |  max time  |%varavg| %total
---------------------------------------------------------------
Pair    | 0          | 0          | 0          |   0.0 |  0.00
Neigh   | 0          | 0          | 0          |   0.0 |  0.00
Comm    | 0          | 0          | 0          |   0.0 |  0.00
Output  | 0          | 0          | 0          |   0.0 |  0.00
Modify  | 0          | 0          | 0          |   0.0 |  0.00
Other   |            | 0.2572     |            |       |100.00

Nlocal:    121278 ave 121278 max 121278 min
Histogram: 1 0 0 0 0 0 0 0 0 0
Nghost:    0 ave 0 max 0 min
Histogram: 1 0 0 0 0 0 0 0 0 0
Neighs:    1.16305e+006 ave 1.16305e+006 max 1.16305e+006 min
Histogram: 1 0 0 0 0 0 0 0 0 0

Total # of neighbors = 1163052
Ave neighs/atom = 9.58997
Neighbor list builds = 0
Dangerous builds = 0
rerun LammpsDump/fracture.7498750.dump first 7498750 last 7498760 dump x y z
WARNING: No fixes defined, atoms won't move (../verlet.cpp:55)
Memory usage per processor = 21.2524 Mbytes
Step Temp TotEng 
 7498750            0            0 
Loop time of 0.252258 on 1 procs for 1 steps with 121278 atoms

Performance: 1712.532 tau/day, 3.964 timesteps/s
179.6% CPU use with 1 MPI tasks x no OpenMP threads

MPI task timing breakdown:
Section |  min time  |  avg time  |  max time  |%varavg| %total
---------------------------------------------------------------
Pair    | 0          | 0          | 0          |   0.0 |  0.00
Neigh   | 0          | 0          | 0          |   0.0 |  0.00
Comm    | 0          | 0          | 0          |   0.0 |  0.00
Output  | 0          | 0          | 0          |   0.0 |  0.00
Modify  | 0          | 0          | 0          |   0.0 |  0.00
Other   |            | 0.2523     |            |       |100.00

Nlocal:    121278 ave 121278 max 121278 min
Histogram: 1 0 0 0 0 0 0 0 0 0
Nghost:    0 ave 0 max 0 min
Histogram: 1 0 0 0 0 0 0 0 0 0
Neighs:    1.16389e+006 ave 1.16389e+006 max 1.16389e+006 min
Histogram: 1 0 0 0 0 0 0 0 0 0

Total # of neighbors = 1163885
Ave neighs/atom = 9.59684
Neighbor list builds = 0
Dangerous builds = 0
rerun LammpsDump/fracture.7498900.dump first 7498900 last 7498910 dump x y z
WARNING: No fixes defined, atoms won't move (../verlet.cpp:55)
Memory usage per processor = 21.2524 Mbytes
Step Temp TotEng 
 7498900            0            0 
Loop time of 0.257247 on 1 procs for 1 steps with 121278 atoms

Performance: 1679.320 tau/day, 3.887 timesteps/s
200.4% CPU use with 1 MPI tasks x no OpenMP threads

MPI task timing breakdown:
Section |  min time  |  avg time  |  max time  |%varavg| %total
---------------------------------------------------------------
Pair    | 0          | 0          | 0          |   0.0 |  0.00
Neigh   | 0          | 0          | 0          |   0.0 |  0.00
Comm    | 0          | 0          | 0          |   0.0 |  0.00
Output  | 0          | 0          | 0          |   0.0 |  0.00
Modify  | 0          | 0          | 0          |   0.0 |  0.00
Other   |            | 0.2572     |            |       |100.00

Nlocal:    121278 ave 121278 max 121278 min
Histogram: 1 0 0 0 0 0 0 0 0 0
Nghost:    0 ave 0 max 0 min
Histogram: 1 0 0 0 0 0 0 0 0 0
Neighs:    1.16464e+006 ave 1.16464e+006 max 1.16464e+006 min
Histogram: 1 0 0 0 0 0 0 0 0 0

Total # of neighbors = 1164641
Ave neighs/atom = 9.60307
Neighbor list builds = 0
Dangerous builds = 0
rerun LammpsDump/fracture.7499050.dump first 7499050 last 7499060 dump x y z
WARNING: No fixes defined, atoms won't move (../verlet.cpp:55)
Memory usage per processor = 21.2524 Mbytes
Step Temp TotEng 
 7499050            0            0 
Loop time of 0.252785 on 1 procs for 1 steps with 121278 atoms

Performance: 1708.962 tau/day, 3.956 timesteps/s
179.3% CPU use with 1 MPI tasks x no OpenMP threads

MPI task timing breakdown:
Section |  min time  |  avg time  |  max time  |%varavg| %total
---------------------------------------------------------------
Pair    | 0          | 0          | 0          |   0.0 |  0.00
Neigh   | 0          | 0          | 0          |   0.0 |  0.00
Comm    | 0          | 0          | 0          |   0.0 |  0.00
Output  | 0          | 0          | 0          |   0.0 |  0.00
Modify  | 0          | 0          | 0          |   0.0 |  0.00
Other   |            | 0.2528     |            |       |100.00

Nlocal:    121278 ave 121278 max 121278 min
Histogram: 1 0 0 0 0 0 0 0 0 0
Nghost:    0 ave 0 max 0 min
Histogram: 1 0 0 0 0 0 0 0 0 0
Neighs:    1.16584e+006 ave 1.16584e+006 max 1.16584e+006 min
Histogram: 1 0 0 0 0 0 0 0 0 0

Total # of neighbors = 1165837
Ave neighs/atom = 9.61293
Neighbor list builds = 0
Dangerous builds = 0
rerun LammpsDump/fracture.7499200.dump first 7499200 last 7499210 dump x y z
WARNING: No fixes defined, atoms won't move (../verlet.cpp:55)
Memory usage per processor = 21.2524 Mbytes
Step Temp TotEng 
 7499200            0            0 
Loop time of 0.26125 on 1 procs for 1 steps with 121278 atoms

Performance: 1653.588 tau/day, 3.828 timesteps/s
215.3% CPU use with 1 MPI tasks x no OpenMP threads

MPI task timing breakdown:
Section |  min time  |  avg time  |  max time  |%varavg| %total
---------------------------------------------------------------
Pair    | 0          | 0          | 0          |   0.0 |  0.00
Neigh   | 0          | 0          | 0          |   0.0 |  0.00
Comm    | 0          | 0          | 0          |   0.0 |  0.00
Output  | 0          | 0          | 0          |   0.0 |  0.00
Modify  | 0          | 0          | 0          |   0.0 |  0.00
Other   |            | 0.2613     |            |       |100.00

Nlocal:    121278 ave 121278 max 121278 min
Histogram: 1 0 0 0 0 0 0 0 0 0
Nghost:    0 ave 0 max 0 min
Histogram: 1 0 0 0 0 0 0 0 0 0
Neighs:    1.16742e+006 ave 1.16742e+006 max 1.16742e+006 min
Histogram: 1 0 0 0 0 0 0 0 0 0

Total # of neighbors = 1167416
Ave neighs/atom = 9.62595
Neighbor list builds = 0
Dangerous builds = 0
rerun LammpsDump/fracture.7499350.dump first 7499350 last 7499360 dump x y z
WARNING: No fixes defined, atoms won't move (../verlet.cpp:55)
Memory usage per processor = 21.2524 Mbytes
Step Temp TotEng 
 7499350            0            0 
Loop time of 0.258247 on 1 procs for 1 steps with 121278 atoms

Performance: 1672.818 tau/day, 3.872 timesteps/s
217.8% CPU use with 1 MPI tasks x no OpenMP threads

MPI task timing breakdown:
Section |  min time  |  avg time  |  max time  |%varavg| %total
---------------------------------------------------------------
Pair    | 0          | 0          | 0          |   0.0 |  0.00
Neigh   | 0          | 0          | 0          |   0.0 |  0.00
Comm    | 0          | 0          | 0          |   0.0 |  0.00
Output  | 0          | 0          | 0          |   0.0 |  0.00
Modify  | 0          | 0          | 0          |   0.0 |  0.00
Other   |            | 0.2582     |            |       |100.00

Nlocal:    121278 ave 121278 max 121278 min
Histogram: 1 0 0 0 0 0 0 0 0 0
Nghost:    0 ave 0 max 0 min
Histogram: 1 0 0 0 0 0 0 0 0 0
Neighs:    1.16912e+006 ave 1.16912e+006 max 1.16912e+006 min
Histogram: 1 0 0 0 0 0 0 0 0 0

Total # of neighbors = 1169116
Ave neighs/atom = 9.63997
Neighbor list builds = 0
Dangerous builds = 0
rerun LammpsDump/fracture.7499500.dump first 7499500 last 7499510 dump x y z
WARNING: No fixes defined, atoms won't move (../verlet.cpp:55)
Memory usage per processor = 21.2524 Mbytes
Step Temp TotEng 
 7499500            0            0 
Loop time of 0.253748 on 1 procs for 1 steps with 121278 atoms

Performance: 1702.475 tau/day, 3.941 timesteps/s
190.9% CPU use with 1 MPI tasks x no OpenMP threads

MPI task timing breakdown:
Section |  min time  |  avg time  |  max time  |%varavg| %total
---------------------------------------------------------------
Pair    | 0          | 0          | 0          |   0.0 |  0.00
Neigh   | 0          | 0          | 0          |   0.0 |  0.00
Comm    | 0          | 0          | 0          |   0.0 |  0.00
Output  | 0          | 0          | 0          |   0.0 |  0.00
Modify  | 0          | 0          | 0          |   0.0 |  0.00
Other   |            | 0.2537     |            |       |100.00

Nlocal:    121278 ave 121278 max 121278 min
Histogram: 1 0 0 0 0 0 0 0 0 0
Nghost:    0 ave 0 max 0 min
Histogram: 1 0 0 0 0 0 0 0 0 0
Neighs:    1.17088e+006 ave 1.17088e+006 max 1.17088e+006 min
Histogram: 1 0 0 0 0 0 0 0 0 0

Total # of neighbors = 1170878
Ave neighs/atom = 9.6545
Neighbor list builds = 0
Dangerous builds = 0
rerun LammpsDump/fracture.7499650.dump first 7499650 last 7499660 dump x y z
WARNING: No fixes defined, atoms won't move (../verlet.cpp:55)
Memory usage per processor = 21.2524 Mbytes
Step Temp TotEng 
 7499650            0            0 
Loop time of 0.262274 on 1 procs for 1 steps with 121278 atoms

Performance: 1647.132 tau/day, 3.813 timesteps/s
214.5% CPU use with 1 MPI tasks x no OpenMP threads

MPI task timing breakdown:
Section |  min time  |  avg time  |  max time  |%varavg| %total
---------------------------------------------------------------
Pair    | 0          | 0          | 0          |   0.0 |  0.00
Neigh   | 0          | 0          | 0          |   0.0 |  0.00
Comm    | 0          | 0          | 0          |   0.0 |  0.00
Output  | 0          | 0          | 0          |   0.0 |  0.00
Modify  | 0          | 0          | 0          |   0.0 |  0.00
Other   |            | 0.2623     |            |       |100.00

Nlocal:    121278 ave 121278 max 121278 min
Histogram: 1 0 0 0 0 0 0 0 0 0
Nghost:    0 ave 0 max 0 min
Histogram: 1 0 0 0 0 0 0 0 0 0
Neighs:    1.17264e+006 ave 1.17264e+006 max 1.17264e+006 min
Histogram: 1 0 0 0 0 0 0 0 0 0

Total # of neighbors = 1172636
Ave neighs/atom = 9.66899
Neighbor list builds = 0
Dangerous builds = 0
rerun LammpsDump/fracture.7499800.dump first 7499800 last 7499810 dump x y z
WARNING: No fixes defined, atoms won't move (../verlet.cpp:55)
Memory usage per processor = 21.2524 Mbytes
Step Temp TotEng 
 7499800            0            0 
Loop time of 0.257774 on 1 procs for 1 steps with 121278 atoms

Performance: 1675.887 tau/day, 3.879 timesteps/s
266.7% CPU use with 1 MPI tasks x no OpenMP threads

MPI task timing breakdown:
Section |  min time  |  avg time  |  max time  |%varavg| %total
---------------------------------------------------------------
Pair    | 0          | 0          | 0          |   0.0 |  0.00
Neigh   | 0          | 0          | 0          |   0.0 |  0.00
Comm    | 0          | 0          | 0          |   0.0 |  0.00
Output  | 0          | 0          | 0          |   0.0 |  0.00
Modify  | 0          | 0          | 0          |   0.0 |  0.00
Other   |            | 0.2578     |            |       |100.00

Nlocal:    121278 ave 121278 max 121278 min
Histogram: 1 0 0 0 0 0 0 0 0 0
Nghost:    0 ave 0 max 0 min
Histogram: 1 0 0 0 0 0 0 0 0 0
Neighs:    1.17457e+006 ave 1.17457e+006 max 1.17457e+006 min
Histogram: 1 0 0 0 0 0 0 0 0 0

Total # of neighbors = 1174572
Ave neighs/atom = 9.68496
Neighbor list builds = 0
Dangerous builds = 0
rerun LammpsDump/fracture.7499950.dump first 7499950 last 7499960 dump x y z
WARNING: No fixes defined, atoms won't move (../verlet.cpp:55)
Memory usage per processor = 21.2524 Mbytes
Step Temp TotEng 
 7499950            0            0 
Loop time of 0.252764 on 1 procs for 1 steps with 121278 atoms

Performance: 1709.104 tau/day, 3.956 timesteps/s
197.8% CPU use with 1 MPI tasks x no OpenMP threads

MPI task timing breakdown:
Section |  min time  |  avg time  |  max time  |%varavg| %total
---------------------------------------------------------------
Pair    | 0          | 0          | 0          |   0.0 |  0.00
Neigh   | 0          | 0          | 0          |   0.0 |  0.00
Comm    | 0          | 0          | 0          |   0.0 |  0.00
Output  | 0          | 0          | 0          |   0.0 |  0.00
Modify  | 0          | 0          | 0          |   0.0 |  0.00
Other   |            | 0.2528     |            |       |100.00

Nlocal:    121278 ave 121278 max 121278 min
Histogram: 1 0 0 0 0 0 0 0 0 0
Nghost:    0 ave 0 max 0 min
Histogram: 1 0 0 0 0 0 0 0 0 0
Neighs:    1.17593e+006 ave 1.17593e+006 max 1.17593e+006 min
Histogram: 1 0 0 0 0 0 0 0 0 0

Total # of neighbors = 1175932
Ave neighs/atom = 9.69617
Neighbor list builds = 0
Dangerous builds = 0
rerun LammpsDump/fracture.7500100.dump first 7500100 last 7500110 dump x y z
WARNING: No fixes defined, atoms won't move (../verlet.cpp:55)
Memory usage per processor = 21.2524 Mbytes
Step Temp TotEng 
 7500100            0            0 
Loop time of 0.257732 on 1 procs for 1 steps with 121278 atoms

Performance: 1676.159 tau/day, 3.880 timesteps/s
200.1% CPU use with 1 MPI tasks x no OpenMP threads

MPI task timing breakdown:
Section |  min time  |  avg time  |  max time  |%varavg| %total
---------------------------------------------------------------
Pair    | 0          | 0          | 0          |   0.0 |  0.00
Neigh   | 0          | 0          | 0          |   0.0 |  0.00
Comm    | 0          | 0          | 0          |   0.0 |  0.00
Output  | 0          | 0          | 0          |   0.0 |  0.00
Modify  | 0          | 0          | 0          |   0.0 |  0.00
Other   |            | 0.2577     |            |       |100.00

Nlocal:    121278 ave 121278 max 121278 min
Histogram: 1 0 0 0 0 0 0 0 0 0
Nghost:    0 ave 0 max 0 min
Histogram: 1 0 0 0 0 0 0 0 0 0
Neighs:    1.17831e+006 ave 1.17831e+006 max 1.17831e+006 min
Histogram: 1 0 0 0 0 0 0 0 0 0

Total # of neighbors = 1178313
Ave neighs/atom = 9.7158
Neighbor list builds = 0
Dangerous builds = 0
rerun LammpsDump/fracture.7500250.dump first 7500250 last 7500260 dump x y z
WARNING: No fixes defined, atoms won't move (../verlet.cpp:55)
Memory usage per processor = 21.2524 Mbytes
Step Temp TotEng 
 7500250            0            0 
Loop time of 0.267256 on 1 procs for 1 steps with 121278 atoms

Performance: 1616.428 tau/day, 3.742 timesteps/s
192.9% CPU use with 1 MPI tasks x no OpenMP threads

MPI task timing breakdown:
Section |  min time  |  avg time  |  max time  |%varavg| %total
---------------------------------------------------------------
Pair    | 0          | 0          | 0          |   0.0 |  0.00
Neigh   | 0          | 0          | 0          |   0.0 |  0.00
Comm    | 0          | 0          | 0          |   0.0 |  0.00
Output  | 0          | 0          | 0          |   0.0 |  0.00
Modify  | 0          | 0          | 0          |   0.0 |  0.00
Other   |            | 0.2673     |            |       |100.00

Nlocal:    121278 ave 121278 max 121278 min
Histogram: 1 0 0 0 0 0 0 0 0 0
Nghost:    0 ave 0 max 0 min
Histogram: 1 0 0 0 0 0 0 0 0 0
Neighs:    1.18031e+006 ave 1.18031e+006 max 1.18031e+006 min
Histogram: 1 0 0 0 0 0 0 0 0 0

Total # of neighbors = 1180307
Ave neighs/atom = 9.73224
Neighbor list builds = 0
Dangerous builds = 0
rerun LammpsDump/fracture.7500400.dump first 7500400 last 7500410 dump x y z
WARNING: No fixes defined, atoms won't move (../verlet.cpp:55)
Memory usage per processor = 21.2524 Mbytes
Step Temp TotEng 
 7500400            0            0 
Loop time of 0.254248 on 1 procs for 1 steps with 121278 atoms

Performance: 1699.129 tau/day, 3.933 timesteps/s
190.5% CPU use with 1 MPI tasks x no OpenMP threads

MPI task timing breakdown:
Section |  min time  |  avg time  |  max time  |%varavg| %total
---------------------------------------------------------------
Pair    | 0          | 0          | 0          |   0.0 |  0.00
Neigh   | 0          | 0          | 0          |   0.0 |  0.00
Comm    | 0          | 0          | 0          |   0.0 |  0.00
Output  | 0          | 0          | 0          |   0.0 |  0.00
Modify  | 0          | 0          | 0          |   0.0 |  0.00
Other   |            | 0.2542     |            |       |100.00

Nlocal:    121278 ave 121278 max 121278 min
Histogram: 1 0 0 0 0 0 0 0 0 0
Nghost:    0 ave 0 max 0 min
Histogram: 1 0 0 0 0 0 0 0 0 0
Neighs:    1.18208e+006 ave 1.18208e+006 max 1.18208e+006 min
Histogram: 1 0 0 0 0 0 0 0 0 0

Total # of neighbors = 1182077
Ave neighs/atom = 9.74684
Neighbor list builds = 0
Dangerous builds = 0
rerun LammpsDump/fracture.7500550.dump first 7500550 last 7500560 dump x y z
WARNING: No fixes defined, atoms won't move (../verlet.cpp:55)
Memory usage per processor = 21.2524 Mbytes
Step Temp TotEng 
 7500550            0            0 
Loop time of 0.264255 on 1 procs for 1 steps with 121278 atoms

Performance: 1634.784 tau/day, 3.784 timesteps/s
165.6% CPU use with 1 MPI tasks x no OpenMP threads

MPI task timing breakdown:
Section |  min time  |  avg time  |  max time  |%varavg| %total
---------------------------------------------------------------
Pair    | 0          | 0          | 0          |   0.0 |  0.00
Neigh   | 0          | 0          | 0          |   0.0 |  0.00
Comm    | 0          | 0          | 0          |   0.0 |  0.00
Output  | 0          | 0          | 0          |   0.0 |  0.00
Modify  | 0          | 0          | 0          |   0.0 |  0.00
Other   |            | 0.2643     |            |       |100.00

Nlocal:    121278 ave 121278 max 121278 min
Histogram: 1 0 0 0 0 0 0 0 0 0
Nghost:    0 ave 0 max 0 min
Histogram: 1 0 0 0 0 0 0 0 0 0
Neighs:    1.18415e+006 ave 1.18415e+006 max 1.18415e+006 min
Histogram: 1 0 0 0 0 0 0 0 0 0

Total # of neighbors = 1184145
Ave neighs/atom = 9.76389
Neighbor list builds = 0
Dangerous builds = 0
rerun LammpsDump/fracture.7500700.dump first 7500700 last 7500710 dump x y z
WARNING: No fixes defined, atoms won't move (../verlet.cpp:55)
Memory usage per processor = 21.2524 Mbytes
Step Temp TotEng 
 7500700            0            0 
Loop time of 0.25928 on 1 procs for 1 steps with 121278 atoms

Performance: 1666.153 tau/day, 3.857 timesteps/s
174.8% CPU use with 1 MPI tasks x no OpenMP threads

MPI task timing breakdown:
Section |  min time  |  avg time  |  max time  |%varavg| %total
---------------------------------------------------------------
Pair    | 0          | 0          | 0          |   0.0 |  0.00
Neigh   | 0          | 0          | 0          |   0.0 |  0.00
Comm    | 0          | 0          | 0          |   0.0 |  0.00
Output  | 0          | 0          | 0          |   0.0 |  0.00
Modify  | 0          | 0          | 0          |   0.0 |  0.00
Other   |            | 0.2593     |            |       |100.00

Nlocal:    121278 ave 121278 max 121278 min
Histogram: 1 0 0 0 0 0 0 0 0 0
Nghost:    0 ave 0 max 0 min
Histogram: 1 0 0 0 0 0 0 0 0 0
Neighs:    1.18651e+006 ave 1.18651e+006 max 1.18651e+006 min
Histogram: 1 0 0 0 0 0 0 0 0 0

Total # of neighbors = 1186507
Ave neighs/atom = 9.78337
Neighbor list builds = 0
Dangerous builds = 0
rerun LammpsDump/fracture.7500850.dump first 7500850 last 7500860 dump x y z
WARNING: No fixes defined, atoms won't move (../verlet.cpp:55)
Memory usage per processor = 21.2524 Mbytes
Step Temp TotEng 
 7500850            0            0 
Loop time of 0.252743 on 1 procs for 1 steps with 121278 atoms

Performance: 1709.246 tau/day, 3.957 timesteps/s
204.0% CPU use with 1 MPI tasks x no OpenMP threads

MPI task timing breakdown:
Section |  min time  |  avg time  |  max time  |%varavg| %total
---------------------------------------------------------------
Pair    | 0          | 0          | 0          |   0.0 |  0.00
Neigh   | 0          | 0          | 0          |   0.0 |  0.00
Comm    | 0          | 0          | 0          |   0.0 |  0.00
Output  | 0          | 0          | 0          |   0.0 |  0.00
Modify  | 0          | 0          | 0          |   0.0 |  0.00
Other   |            | 0.2527     |            |       |100.00

Nlocal:    121278 ave 121278 max 121278 min
Histogram: 1 0 0 0 0 0 0 0 0 0
Nghost:    0 ave 0 max 0 min
Histogram: 1 0 0 0 0 0 0 0 0 0
Neighs:    1.18855e+006 ave 1.18855e+006 max 1.18855e+006 min
Histogram: 1 0 0 0 0 0 0 0 0 0

Total # of neighbors = 1188550
Ave neighs/atom = 9.80021
Neighbor list builds = 0
Dangerous builds = 0
rerun LammpsDump/fracture.7501000.dump first 7501000 last 7501010 dump x y z
WARNING: No fixes defined, atoms won't move (../verlet.cpp:55)
Memory usage per processor = 21.2524 Mbytes
Step Temp TotEng 
 7501000            0            0 
Loop time of 0.263754 on 1 procs for 1 steps with 121278 atoms

Performance: 1637.891 tau/day, 3.791 timesteps/s
189.6% CPU use with 1 MPI tasks x no OpenMP threads

MPI task timing breakdown:
Section |  min time  |  avg time  |  max time  |%varavg| %total
---------------------------------------------------------------
Pair    | 0          | 0          | 0          |   0.0 |  0.00
Neigh   | 0          | 0          | 0          |   0.0 |  0.00
Comm    | 0          | 0          | 0          |   0.0 |  0.00
Output  | 0          | 0          | 0          |   0.0 |  0.00
Modify  | 0          | 0          | 0          |   0.0 |  0.00
Other   |            | 0.2638     |            |       |100.00

Nlocal:    121278 ave 121278 max 121278 min
Histogram: 1 0 0 0 0 0 0 0 0 0
Nghost:    0 ave 0 max 0 min
Histogram: 1 0 0 0 0 0 0 0 0 0
Neighs:    1.19068e+006 ave 1.19068e+006 max 1.19068e+006 min
Histogram: 1 0 0 0 0 0 0 0 0 0

Total # of neighbors = 1190677
Ave neighs/atom = 9.81775
Neighbor list builds = 0
Dangerous builds = 0
rerun LammpsDump/fracture.7501150.dump first 7501150 last 7501160 dump x y z
WARNING: No fixes defined, atoms won't move (../verlet.cpp:55)
Memory usage per processor = 21.2524 Mbytes
Step Temp TotEng 
 7501150            0            0 
Loop time of 0.259249 on 1 procs for 1 steps with 121278 atoms

Performance: 1666.352 tau/day, 3.857 timesteps/s
168.8% CPU use with 1 MPI tasks x no OpenMP threads

MPI task timing breakdown:
Section |  min time  |  avg time  |  max time  |%varavg| %total
---------------------------------------------------------------
Pair    | 0          | 0          | 0          |   0.0 |  0.00
Neigh   | 0          | 0          | 0          |   0.0 |  0.00
Comm    | 0          | 0          | 0          |   0.0 |  0.00
Output  | 0          | 0          | 0          |   0.0 |  0.00
Modify  | 0          | 0          | 0          |   0.0 |  0.00
Other   |            | 0.2592     |            |       |100.00

Nlocal:    121278 ave 121278 max 121278 min
Histogram: 1 0 0 0 0 0 0 0 0 0
Nghost:    0 ave 0 max 0 min
Histogram: 1 0 0 0 0 0 0 0 0 0
Neighs:    1.19255e+006 ave 1.19255e+006 max 1.19255e+006 min
Histogram: 1 0 0 0 0 0 0 0 0 0

Total # of neighbors = 1192547
Ave neighs/atom = 9.83317
Neighbor list builds = 0
Dangerous builds = 0
rerun LammpsDump/fracture.7501300.dump first 7501300 last 7501310 dump x y z
WARNING: No fixes defined, atoms won't move (../verlet.cpp:55)
Memory usage per processor = 21.2524 Mbytes
Step Temp TotEng 
 7501300            0            0 
Loop time of 0.268257 on 1 procs for 1 steps with 121278 atoms

Performance: 1610.397 tau/day, 3.728 timesteps/s
174.7% CPU use with 1 MPI tasks x no OpenMP threads

MPI task timing breakdown:
Section |  min time  |  avg time  |  max time  |%varavg| %total
---------------------------------------------------------------
Pair    | 0          | 0          | 0          |   0.0 |  0.00
Neigh   | 0          | 0          | 0          |   0.0 |  0.00
Comm    | 0          | 0          | 0          |   0.0 |  0.00
Output  | 0          | 0          | 0          |   0.0 |  0.00
Modify  | 0          | 0          | 0          |   0.0 |  0.00
Other   |            | 0.2683     |            |       |100.00

Nlocal:    121278 ave 121278 max 121278 min
Histogram: 1 0 0 0 0 0 0 0 0 0
Nghost:    0 ave 0 max 0 min
Histogram: 1 0 0 0 0 0 0 0 0 0
Neighs:    1.19402e+006 ave 1.19402e+006 max 1.19402e+006 min
Histogram: 1 0 0 0 0 0 0 0 0 0

Total # of neighbors = 1194024
Ave neighs/atom = 9.84535
Neighbor list builds = 0
Dangerous builds = 0
rerun LammpsDump/fracture.7501450.dump first 7501450 last 7501460 dump x y z
WARNING: No fixes defined, atoms won't move (../verlet.cpp:55)
Memory usage per processor = 21.2524 Mbytes
Step Temp TotEng 
 7501450            0            0 
Loop time of 0.259249 on 1 procs for 1 steps with 121278 atoms

Performance: 1666.352 tau/day, 3.857 timesteps/s
198.9% CPU use with 1 MPI tasks x no OpenMP threads

MPI task timing breakdown:
Section |  min time  |  avg time  |  max time  |%varavg| %total
---------------------------------------------------------------
Pair    | 0          | 0          | 0          |   0.0 |  0.00
Neigh   | 0          | 0          | 0          |   0.0 |  0.00
Comm    | 0          | 0          | 0          |   0.0 |  0.00
Output  | 0          | 0          | 0          |   0.0 |  0.00
Modify  | 0          | 0          | 0          |   0.0 |  0.00
Other   |            | 0.2592     |            |       |100.00

Nlocal:    121278 ave 121278 max 121278 min
Histogram: 1 0 0 0 0 0 0 0 0 0
Nghost:    0 ave 0 max 0 min
Histogram: 1 0 0 0 0 0 0 0 0 0
Neighs:    1.19661e+006 ave 1.19661e+006 max 1.19661e+006 min
Histogram: 1 0 0 0 0 0 0 0 0 0

Total # of neighbors = 1196605
Ave neighs/atom = 9.86663
Neighbor list builds = 0
Dangerous builds = 0
rerun LammpsDump/fracture.7501600.dump first 7501600 last 7501610 dump x y z
WARNING: No fixes defined, atoms won't move (../verlet.cpp:55)
Memory usage per processor = 21.2524 Mbytes
Step Temp TotEng 
 7501600            0            0 
Loop time of 0.252742 on 1 procs for 1 steps with 121278 atoms

Performance: 1709.253 tau/day, 3.957 timesteps/s
179.3% CPU use with 1 MPI tasks x no OpenMP threads

MPI task timing breakdown:
Section |  min time  |  avg time  |  max time  |%varavg| %total
---------------------------------------------------------------
Pair    | 0          | 0          | 0          |   0.0 |  0.00
Neigh   | 0          | 0          | 0          |   0.0 |  0.00
Comm    | 0          | 0          | 0          |   0.0 |  0.00
Output  | 0          | 0          | 0          |   0.0 |  0.00
Modify  | 0          | 0          | 0          |   0.0 |  0.00
Other   |            | 0.2527     |            |       |100.00

Nlocal:    121278 ave 121278 max 121278 min
Histogram: 1 0 0 0 0 0 0 0 0 0
Nghost:    0 ave 0 max 0 min
Histogram: 1 0 0 0 0 0 0 0 0 0
Neighs:    1.19862e+006 ave 1.19862e+006 max 1.19862e+006 min
Histogram: 1 0 0 0 0 0 0 0 0 0

Total # of neighbors = 1198615
Ave neighs/atom = 9.8832
Neighbor list builds = 0
Dangerous builds = 0
rerun LammpsDump/fracture.7501750.dump first 7501750 last 7501760 dump x y z
WARNING: No fixes defined, atoms won't move (../verlet.cpp:55)
Memory usage per processor = 21.2524 Mbytes
Step Temp TotEng 
 7501750            0            0 
Loop time of 0.254765 on 1 procs for 1 steps with 121278 atoms

Performance: 1695.680 tau/day, 3.925 timesteps/s
190.1% CPU use with 1 MPI tasks x no OpenMP threads

MPI task timing breakdown:
Section |  min time  |  avg time  |  max time  |%varavg| %total
---------------------------------------------------------------
Pair    | 0          | 0          | 0          |   0.0 |  0.00
Neigh   | 0          | 0          | 0          |   0.0 |  0.00
Comm    | 0          | 0          | 0          |   0.0 |  0.00
Output  | 0          | 0          | 0          |   0.0 |  0.00
Modify  | 0          | 0          | 0          |   0.0 |  0.00
Other   |            | 0.2548     |            |       |100.00

Nlocal:    121278 ave 121278 max 121278 min
Histogram: 1 0 0 0 0 0 0 0 0 0
Nghost:    0 ave 0 max 0 min
Histogram: 1 0 0 0 0 0 0 0 0 0
Neighs:    1.20072e+006 ave 1.20072e+006 max 1.20072e+006 min
Histogram: 1 0 0 0 0 0 0 0 0 0

Total # of neighbors = 1200721
Ave neighs/atom = 9.90057
Neighbor list builds = 0
Dangerous builds = 0
rerun LammpsDump/fracture.7501900.dump first 7501900 last 7501910 dump x y z
WARNING: No fixes defined, atoms won't move (../verlet.cpp:55)
Memory usage per processor = 21.2524 Mbytes
Step Temp TotEng 
 7501900            0            0 
Loop time of 0.259749 on 1 procs for 1 steps with 121278 atoms

Performance: 1663.144 tau/day, 3.850 timesteps/s
210.5% CPU use with 1 MPI tasks x no OpenMP threads

MPI task timing breakdown:
Section |  min time  |  avg time  |  max time  |%varavg| %total
---------------------------------------------------------------
Pair    | 0          | 0          | 0          |   0.0 |  0.00
Neigh   | 0          | 0          | 0          |   0.0 |  0.00
Comm    | 0          | 0          | 0          |   0.0 |  0.00
Output  | 0          | 0          | 0          |   0.0 |  0.00
Modify  | 0          | 0          | 0          |   0.0 |  0.00
Other   |            | 0.2597     |            |       |100.00

Nlocal:    121278 ave 121278 max 121278 min
Histogram: 1 0 0 0 0 0 0 0 0 0
Nghost:    0 ave 0 max 0 min
Histogram: 1 0 0 0 0 0 0 0 0 0
Neighs:    1.20214e+006 ave 1.20214e+006 max 1.20214e+006 min
Histogram: 1 0 0 0 0 0 0 0 0 0

Total # of neighbors = 1202137
Ave neighs/atom = 9.91224
Neighbor list builds = 0
Dangerous builds = 0
rerun LammpsDump/fracture.7502050.dump first 7502050 last 7502060 dump x y z
WARNING: No fixes defined, atoms won't move (../verlet.cpp:55)
Memory usage per processor = 21.2524 Mbytes
Step Temp TotEng 
 7502050            0            0 
Loop time of 0.256746 on 1 procs for 1 steps with 121278 atoms

Performance: 1682.596 tau/day, 3.895 timesteps/s
182.6% CPU use with 1 MPI tasks x no OpenMP threads

MPI task timing breakdown:
Section |  min time  |  avg time  |  max time  |%varavg| %total
---------------------------------------------------------------
Pair    | 0          | 0          | 0          |   0.0 |  0.00
Neigh   | 0          | 0          | 0          |   0.0 |  0.00
Comm    | 0          | 0          | 0          |   0.0 |  0.00
Output  | 0          | 0          | 0          |   0.0 |  0.00
Modify  | 0          | 0          | 0          |   0.0 |  0.00
Other   |            | 0.2567     |            |       |100.00

Nlocal:    121278 ave 121278 max 121278 min
Histogram: 1 0 0 0 0 0 0 0 0 0
Nghost:    0 ave 0 max 0 min
Histogram: 1 0 0 0 0 0 0 0 0 0
Neighs:    1.20369e+006 ave 1.20369e+006 max 1.20369e+006 min
Histogram: 1 0 0 0 0 0 0 0 0 0

Total # of neighbors = 1203689
Ave neighs/atom = 9.92504
Neighbor list builds = 0
Dangerous builds = 0
rerun LammpsDump/fracture.7502200.dump first 7502200 last 7502210 dump x y z
WARNING: No fixes defined, atoms won't move (../verlet.cpp:55)
Memory usage per processor = 21.2524 Mbytes
Step Temp TotEng 
 7502200            0            0 
Loop time of 0.262736 on 1 procs for 1 steps with 121278 atoms

Performance: 1644.236 tau/day, 3.806 timesteps/s
178.4% CPU use with 1 MPI tasks x no OpenMP threads

MPI task timing breakdown:
Section |  min time  |  avg time  |  max time  |%varavg| %total
---------------------------------------------------------------
Pair    | 0          | 0          | 0          |   0.0 |  0.00
Neigh   | 0          | 0          | 0          |   0.0 |  0.00
Comm    | 0          | 0          | 0          |   0.0 |  0.00
Output  | 0          | 0          | 0          |   0.0 |  0.00
Modify  | 0          | 0          | 0          |   0.0 |  0.00
Other   |            | 0.2627     |            |       |100.00

Nlocal:    121278 ave 121278 max 121278 min
Histogram: 1 0 0 0 0 0 0 0 0 0
Nghost:    0 ave 0 max 0 min
Histogram: 1 0 0 0 0 0 0 0 0 0
Neighs:    1.205e+006 ave 1.205e+006 max 1.205e+006 min
Histogram: 1 0 0 0 0 0 0 0 0 0

Total # of neighbors = 1205001
Ave neighs/atom = 9.93586
Neighbor list builds = 0
Dangerous builds = 0
rerun LammpsDump/fracture.7502350.dump first 7502350 last 7502360 dump x y z
WARNING: No fixes defined, atoms won't move (../verlet.cpp:55)
Memory usage per processor = 21.2524 Mbytes
Step Temp TotEng 
 7502350            0            0 
Loop time of 0.253742 on 1 procs for 1 steps with 121278 atoms

Performance: 1702.517 tau/day, 3.941 timesteps/s
184.7% CPU use with 1 MPI tasks x no OpenMP threads

MPI task timing breakdown:
Section |  min time  |  avg time  |  max time  |%varavg| %total
---------------------------------------------------------------
Pair    | 0          | 0          | 0          |   0.0 |  0.00
Neigh   | 0          | 0          | 0          |   0.0 |  0.00
Comm    | 0          | 0          | 0          |   0.0 |  0.00
Output  | 0          | 0          | 0          |   0.0 |  0.00
Modify  | 0          | 0          | 0          |   0.0 |  0.00
Other   |            | 0.2537     |            |       |100.00

Nlocal:    121278 ave 121278 max 121278 min
Histogram: 1 0 0 0 0 0 0 0 0 0
Nghost:    0 ave 0 max 0 min
Histogram: 1 0 0 0 0 0 0 0 0 0
Neighs:    1.20636e+006 ave 1.20636e+006 max 1.20636e+006 min
Histogram: 1 0 0 0 0 0 0 0 0 0

Total # of neighbors = 1206358
Ave neighs/atom = 9.94705
Neighbor list builds = 0
Dangerous builds = 0
rerun LammpsDump/fracture.7502500.dump first 7502500 last 7502510 dump x y z
WARNING: No fixes defined, atoms won't move (../verlet.cpp:55)
Memory usage per processor = 21.2524 Mbytes
Step Temp TotEng 
 7502500            0            0 
Loop time of 0.255228 on 1 procs for 1 steps with 121278 atoms

Performance: 1692.604 tau/day, 3.918 timesteps/s
165.3% CPU use with 1 MPI tasks x no OpenMP threads

MPI task timing breakdown:
Section |  min time  |  avg time  |  max time  |%varavg| %total
---------------------------------------------------------------
Pair    | 0          | 0          | 0          |   0.0 |  0.00
Neigh   | 0          | 0          | 0          |   0.0 |  0.00
Comm    | 0          | 0          | 0          |   0.0 |  0.00
Output  | 0          | 0          | 0          |   0.0 |  0.00
Modify  | 0          | 0          | 0          |   0.0 |  0.00
Other   |            | 0.2552     |            |       |100.00

Nlocal:    121278 ave 121278 max 121278 min
Histogram: 1 0 0 0 0 0 0 0 0 0
Nghost:    0 ave 0 max 0 min
Histogram: 1 0 0 0 0 0 0 0 0 0
Neighs:    1.20777e+006 ave 1.20777e+006 max 1.20777e+006 min
Histogram: 1 0 0 0 0 0 0 0 0 0

Total # of neighbors = 1207770
Ave neighs/atom = 9.95869
Neighbor list builds = 0
Dangerous builds = 0
rerun LammpsDump/fracture.7502650.dump first 7502650 last 7502660 dump x y z
WARNING: No fixes defined, atoms won't move (../verlet.cpp:55)
Memory usage per processor = 21.2524 Mbytes
Step Temp TotEng 
 7502650            0            0 
Loop time of 0.254767 on 1 procs for 1 steps with 121278 atoms

Performance: 1695.667 tau/day, 3.925 timesteps/s
214.7% CPU use with 1 MPI tasks x no OpenMP threads

MPI task timing breakdown:
Section |  min time  |  avg time  |  max time  |%varavg| %total
---------------------------------------------------------------
Pair    | 0          | 0          | 0          |   0.0 |  0.00
Neigh   | 0          | 0          | 0          |   0.0 |  0.00
Comm    | 0          | 0          | 0          |   0.0 |  0.00
Output  | 0          | 0          | 0          |   0.0 |  0.00
Modify  | 0          | 0          | 0          |   0.0 |  0.00
Other   |            | 0.2548     |            |       |100.00

Nlocal:    121278 ave 121278 max 121278 min
Histogram: 1 0 0 0 0 0 0 0 0 0
Nghost:    0 ave 0 max 0 min
Histogram: 1 0 0 0 0 0 0 0 0 0
Neighs:    1.20925e+006 ave 1.20925e+006 max 1.20925e+006 min
Histogram: 1 0 0 0 0 0 0 0 0 0

Total # of neighbors = 1209247
Ave neighs/atom = 9.97087
Neighbor list builds = 0
Dangerous builds = 0
rerun LammpsDump/fracture.7502800.dump first 7502800 last 7502810 dump x y z
WARNING: No fixes defined, atoms won't move (../verlet.cpp:55)
Memory usage per processor = 21.2524 Mbytes
Step Temp TotEng 
 7502800            0            0 
Loop time of 0.259764 on 1 procs for 1 steps with 121278 atoms

Performance: 1663.048 tau/day, 3.850 timesteps/s
198.5% CPU use with 1 MPI tasks x no OpenMP threads

MPI task timing breakdown:
Section |  min time  |  avg time  |  max time  |%varavg| %total
---------------------------------------------------------------
Pair    | 0          | 0          | 0          |   0.0 |  0.00
Neigh   | 0          | 0          | 0          |   0.0 |  0.00
Comm    | 0          | 0          | 0          |   0.0 |  0.00
Output  | 0          | 0          | 0          |   0.0 |  0.00
Modify  | 0          | 0          | 0          |   0.0 |  0.00
Other   |            | 0.2598     |            |       |100.00

Nlocal:    121278 ave 121278 max 121278 min
Histogram: 1 0 0 0 0 0 0 0 0 0
Nghost:    0 ave 0 max 0 min
Histogram: 1 0 0 0 0 0 0 0 0 0
Neighs:    1.21086e+006 ave 1.21086e+006 max 1.21086e+006 min
Histogram: 1 0 0 0 0 0 0 0 0 0

Total # of neighbors = 1210858
Ave neighs/atom = 9.98415
Neighbor list builds = 0
Dangerous builds = 0
rerun LammpsDump/fracture.7502950.dump first 7502950 last 7502960 dump x y z
WARNING: No fixes defined, atoms won't move (../verlet.cpp:55)
Memory usage per processor = 21.2524 Mbytes
Step Temp TotEng 
 7502950            0            0 
Loop time of 0.260268 on 1 procs for 1 steps with 121278 atoms

Performance: 1659.826 tau/day, 3.842 timesteps/s
174.1% CPU use with 1 MPI tasks x no OpenMP threads

MPI task timing breakdown:
Section |  min time  |  avg time  |  max time  |%varavg| %total
---------------------------------------------------------------
Pair    | 0          | 0          | 0          |   0.0 |  0.00
Neigh   | 0          | 0          | 0          |   0.0 |  0.00
Comm    | 0          | 0          | 0          |   0.0 |  0.00
Output  | 0          | 0          | 0          |   0.0 |  0.00
Modify  | 0          | 0          | 0          |   0.0 |  0.00
Other   |            | 0.2603     |            |       |100.00

Nlocal:    121278 ave 121278 max 121278 min
Histogram: 1 0 0 0 0 0 0 0 0 0
Nghost:    0 ave 0 max 0 min
Histogram: 1 0 0 0 0 0 0 0 0 0
Neighs:    1.2121e+006 ave 1.2121e+006 max 1.2121e+006 min
Histogram: 1 0 0 0 0 0 0 0 0 0

Total # of neighbors = 1212097
Ave neighs/atom = 9.99437
Neighbor list builds = 0
Dangerous builds = 0
rerun LammpsDump/fracture.7503100.dump first 7503100 last 7503110 dump x y z
WARNING: No fixes defined, atoms won't move (../verlet.cpp:55)
Memory usage per processor = 21.2524 Mbytes
Step Temp TotEng 
 7503100            0            0 
Loop time of 0.257229 on 1 procs for 1 steps with 121278 atoms

Performance: 1679.437 tau/day, 3.888 timesteps/s
206.5% CPU use with 1 MPI tasks x no OpenMP threads

MPI task timing breakdown:
Section |  min time  |  avg time  |  max time  |%varavg| %total
---------------------------------------------------------------
Pair    | 0          | 0          | 0          |   0.0 |  0.00
Neigh   | 0          | 0          | 0          |   0.0 |  0.00
Comm    | 0          | 0          | 0          |   0.0 |  0.00
Output  | 0          | 0          | 0          |   0.0 |  0.00
Modify  | 0          | 0          | 0          |   0.0 |  0.00
Other   |            | 0.2572     |            |       |100.00

Nlocal:    121278 ave 121278 max 121278 min
Histogram: 1 0 0 0 0 0 0 0 0 0
Nghost:    0 ave 0 max 0 min
Histogram: 1 0 0 0 0 0 0 0 0 0
Neighs:    1.21333e+006 ave 1.21333e+006 max 1.21333e+006 min
Histogram: 1 0 0 0 0 0 0 0 0 0

Total # of neighbors = 1213331
Ave neighs/atom = 10.0045
Neighbor list builds = 0
Dangerous builds = 0
rerun LammpsDump/fracture.7503250.dump first 7503250 last 7503260 dump x y z
WARNING: No fixes defined, atoms won't move (../verlet.cpp:55)
Memory usage per processor = 21.2524 Mbytes
Step Temp TotEng 
 7503250            0            0 
Loop time of 0.259249 on 1 procs for 1 steps with 121278 atoms

Performance: 1666.352 tau/day, 3.857 timesteps/s
144.6% CPU use with 1 MPI tasks x no OpenMP threads

MPI task timing breakdown:
Section |  min time  |  avg time  |  max time  |%varavg| %total
---------------------------------------------------------------
Pair    | 0          | 0          | 0          |   0.0 |  0.00
Neigh   | 0          | 0          | 0          |   0.0 |  0.00
Comm    | 0          | 0          | 0          |   0.0 |  0.00
Output  | 0          | 0          | 0          |   0.0 |  0.00
Modify  | 0          | 0          | 0          |   0.0 |  0.00
Other   |            | 0.2592     |            |       |100.00

Nlocal:    121278 ave 121278 max 121278 min
Histogram: 1 0 0 0 0 0 0 0 0 0
Nghost:    0 ave 0 max 0 min
Histogram: 1 0 0 0 0 0 0 0 0 0
Neighs:    1.21432e+006 ave 1.21432e+006 max 1.21432e+006 min
Histogram: 1 0 0 0 0 0 0 0 0 0

Total # of neighbors = 1214321
Ave neighs/atom = 10.0127
Neighbor list builds = 0
Dangerous builds = 0
rerun LammpsDump/fracture.7503400.dump first 7503400 last 7503410 dump x y z
WARNING: No fixes defined, atoms won't move (../verlet.cpp:55)
Memory usage per processor = 21.2524 Mbytes
Step Temp TotEng 
 7503400            0            0 
Loop time of 0.254259 on 1 procs for 1 steps with 121278 atoms

Performance: 1699.056 tau/day, 3.933 timesteps/s
190.5% CPU use with 1 MPI tasks x no OpenMP threads

MPI task timing breakdown:
Section |  min time  |  avg time  |  max time  |%varavg| %total
---------------------------------------------------------------
Pair    | 0          | 0          | 0          |   0.0 |  0.00
Neigh   | 0          | 0          | 0          |   0.0 |  0.00
Comm    | 0          | 0          | 0          |   0.0 |  0.00
Output  | 0          | 0          | 0          |   0.0 |  0.00
Modify  | 0          | 0          | 0          |   0.0 |  0.00
Other   |            | 0.2543     |            |       |100.00

Nlocal:    121278 ave 121278 max 121278 min
Histogram: 1 0 0 0 0 0 0 0 0 0
Nghost:    0 ave 0 max 0 min
Histogram: 1 0 0 0 0 0 0 0 0 0
Neighs:    1.21592e+006 ave 1.21592e+006 max 1.21592e+006 min
Histogram: 1 0 0 0 0 0 0 0 0 0

Total # of neighbors = 1215918
Ave neighs/atom = 10.0259
Neighbor list builds = 0
Dangerous builds = 0
rerun LammpsDump/fracture.7503550.dump first 7503550 last 7503560 dump x y z
WARNING: No fixes defined, atoms won't move (../verlet.cpp:55)
Memory usage per processor = 21.2524 Mbytes
Step Temp TotEng 
 7503550            0            0 
Loop time of 0.25411 on 1 procs for 1 steps with 121278 atoms

Performance: 1700.052 tau/day, 3.935 timesteps/s
184.5% CPU use with 1 MPI tasks x no OpenMP threads

MPI task timing breakdown:
Section |  min time  |  avg time  |  max time  |%varavg| %total
---------------------------------------------------------------
Pair    | 0          | 0          | 0          |   0.0 |  0.00
Neigh   | 0          | 0          | 0          |   0.0 |  0.00
Comm    | 0          | 0          | 0          |   0.0 |  0.00
Output  | 0          | 0          | 0          |   0.0 |  0.00
Modify  | 0          | 0          | 0          |   0.0 |  0.00
Other   |            | 0.2541     |            |       |100.00

Nlocal:    121278 ave 121278 max 121278 min
Histogram: 1 0 0 0 0 0 0 0 0 0
Nghost:    0 ave 0 max 0 min
Histogram: 1 0 0 0 0 0 0 0 0 0
Neighs:    1.21749e+006 ave 1.21749e+006 max 1.21749e+006 min
Histogram: 1 0 0 0 0 0 0 0 0 0

Total # of neighbors = 1217493
Ave neighs/atom = 10.0389
Neighbor list builds = 0
Dangerous builds = 0
rerun LammpsDump/fracture.7503700.dump first 7503700 last 7503710 dump x y z
WARNING: No fixes defined, atoms won't move (../verlet.cpp:55)
Memory usage per processor = 21.2524 Mbytes
Step Temp TotEng 
 7503700            0            0 
Loop time of 0.26528 on 1 procs for 1 steps with 121278 atoms

Performance: 1628.468 tau/day, 3.770 timesteps/s
176.7% CPU use with 1 MPI tasks x no OpenMP threads

MPI task timing breakdown:
Section |  min time  |  avg time  |  max time  |%varavg| %total
---------------------------------------------------------------
Pair    | 0          | 0          | 0          |   0.0 |  0.00
Neigh   | 0          | 0          | 0          |   0.0 |  0.00
Comm    | 0          | 0          | 0          |   0.0 |  0.00
Output  | 0          | 0          | 0          |   0.0 |  0.00
Modify  | 0          | 0          | 0          |   0.0 |  0.00
Other   |            | 0.2653     |            |       |100.00

Nlocal:    121278 ave 121278 max 121278 min
Histogram: 1 0 0 0 0 0 0 0 0 0
Nghost:    0 ave 0 max 0 min
Histogram: 1 0 0 0 0 0 0 0 0 0
Neighs:    1.21887e+006 ave 1.21887e+006 max 1.21887e+006 min
Histogram: 1 0 0 0 0 0 0 0 0 0

Total # of neighbors = 1218867
Ave neighs/atom = 10.0502
Neighbor list builds = 0
Dangerous builds = 0
rerun LammpsDump/fracture.7503850.dump first 7503850 last 7503860 dump x y z
WARNING: No fixes defined, atoms won't move (../verlet.cpp:55)
Memory usage per processor = 21.2524 Mbytes
Step Temp TotEng 
 7503850            0            0 
Loop time of 0.267757 on 1 procs for 1 steps with 121278 atoms

Performance: 1613.404 tau/day, 3.735 timesteps/s
210.1% CPU use with 1 MPI tasks x no OpenMP threads

MPI task timing breakdown:
Section |  min time  |  avg time  |  max time  |%varavg| %total
---------------------------------------------------------------
Pair    | 0          | 0          | 0          |   0.0 |  0.00
Neigh   | 0          | 0          | 0          |   0.0 |  0.00
Comm    | 0          | 0          | 0          |   0.0 |  0.00
Output  | 0          | 0          | 0          |   0.0 |  0.00
Modify  | 0          | 0          | 0          |   0.0 |  0.00
Other   |            | 0.2678     |            |       |100.00

Nlocal:    121278 ave 121278 max 121278 min
Histogram: 1 0 0 0 0 0 0 0 0 0
Nghost:    0 ave 0 max 0 min
Histogram: 1 0 0 0 0 0 0 0 0 0
Neighs:    1.21968e+006 ave 1.21968e+006 max 1.21968e+006 min
Histogram: 1 0 0 0 0 0 0 0 0 0

Total # of neighbors = 1219675
Ave neighs/atom = 10.0569
Neighbor list builds = 0
Dangerous builds = 0
rerun LammpsDump/fracture.7504000.dump first 7504000 last 7504010 dump x y z
WARNING: No fixes defined, atoms won't move (../verlet.cpp:55)
Memory usage per processor = 21.2524 Mbytes
Step Temp TotEng 
 7504000            0            0 
Loop time of 0.265756 on 1 procs for 1 steps with 121278 atoms

Performance: 1625.552 tau/day, 3.763 timesteps/s
158.7% CPU use with 1 MPI tasks x no OpenMP threads

MPI task timing breakdown:
Section |  min time  |  avg time  |  max time  |%varavg| %total
---------------------------------------------------------------
Pair    | 0          | 0          | 0          |   0.0 |  0.00
Neigh   | 0          | 0          | 0          |   0.0 |  0.00
Comm    | 0          | 0          | 0          |   0.0 |  0.00
Output  | 0          | 0          | 0          |   0.0 |  0.00
Modify  | 0          | 0          | 0          |   0.0 |  0.00
Other   |            | 0.2658     |            |       |100.00

Nlocal:    121278 ave 121278 max 121278 min
Histogram: 1 0 0 0 0 0 0 0 0 0
Nghost:    0 ave 0 max 0 min
Histogram: 1 0 0 0 0 0 0 0 0 0
Neighs:    1.22115e+006 ave 1.22115e+006 max 1.22115e+006 min
Histogram: 1 0 0 0 0 0 0 0 0 0

Total # of neighbors = 1221151
Ave neighs/atom = 10.069
Neighbor list builds = 0
Dangerous builds = 0
rerun LammpsDump/fracture.7504150.dump first 7504150 last 7504160 dump x y z
WARNING: No fixes defined, atoms won't move (../verlet.cpp:55)
Memory usage per processor = 21.2524 Mbytes
Step Temp TotEng 
 7504150            0            0 
Loop time of 0.263753 on 1 procs for 1 steps with 121278 atoms

Performance: 1637.896 tau/day, 3.791 timesteps/s
183.6% CPU use with 1 MPI tasks x no OpenMP threads

MPI task timing breakdown:
Section |  min time  |  avg time  |  max time  |%varavg| %total
---------------------------------------------------------------
Pair    | 0          | 0          | 0          |   0.0 |  0.00
Neigh   | 0          | 0          | 0          |   0.0 |  0.00
Comm    | 0          | 0          | 0          |   0.0 |  0.00
Output  | 0          | 0          | 0          |   0.0 |  0.00
Modify  | 0          | 0          | 0          |   0.0 |  0.00
Other   |            | 0.2638     |            |       |100.00

Nlocal:    121278 ave 121278 max 121278 min
Histogram: 1 0 0 0 0 0 0 0 0 0
Nghost:    0 ave 0 max 0 min
Histogram: 1 0 0 0 0 0 0 0 0 0
Neighs:    1.22249e+006 ave 1.22249e+006 max 1.22249e+006 min
Histogram: 1 0 0 0 0 0 0 0 0 0

Total # of neighbors = 1222489
Ave neighs/atom = 10.0801
Neighbor list builds = 0
Dangerous builds = 0
rerun LammpsDump/fracture.7504300.dump first 7504300 last 7504310 dump x y z
WARNING: No fixes defined, atoms won't move (../verlet.cpp:55)
Memory usage per processor = 21.2524 Mbytes
Step Temp TotEng 
 7504300            0            0 
Loop time of 0.254262 on 1 procs for 1 steps with 121278 atoms

Performance: 1699.035 tau/day, 3.933 timesteps/s
147.5% CPU use with 1 MPI tasks x no OpenMP threads

MPI task timing breakdown:
Section |  min time  |  avg time  |  max time  |%varavg| %total
---------------------------------------------------------------
Pair    | 0          | 0          | 0          |   0.0 |  0.00
Neigh   | 0          | 0          | 0          |   0.0 |  0.00
Comm    | 0          | 0          | 0          |   0.0 |  0.00
Output  | 0          | 0          | 0          |   0.0 |  0.00
Modify  | 0          | 0          | 0          |   0.0 |  0.00
Other   |            | 0.2543     |            |       |100.00

Nlocal:    121278 ave 121278 max 121278 min
Histogram: 1 0 0 0 0 0 0 0 0 0
Nghost:    0 ave 0 max 0 min
Histogram: 1 0 0 0 0 0 0 0 0 0
Neighs:    1.22318e+006 ave 1.22318e+006 max 1.22318e+006 min
Histogram: 1 0 0 0 0 0 0 0 0 0

Total # of neighbors = 1223183
Ave neighs/atom = 10.0858
Neighbor list builds = 0
Dangerous builds = 0
rerun LammpsDump/fracture.7504450.dump first 7504450 last 7504460 dump x y z
WARNING: No fixes defined, atoms won't move (../verlet.cpp:55)
Memory usage per processor = 21.2524 Mbytes
Step Temp TotEng 
 7504450            0            0 
Loop time of 0.256245 on 1 procs for 1 steps with 121278 atoms

Performance: 1685.886 tau/day, 3.903 timesteps/s
189.0% CPU use with 1 MPI tasks x no OpenMP threads

MPI task timing breakdown:
Section |  min time  |  avg time  |  max time  |%varavg| %total
---------------------------------------------------------------
Pair    | 0          | 0          | 0          |   0.0 |  0.00
Neigh   | 0          | 0          | 0          |   0.0 |  0.00
Comm    | 0          | 0          | 0          |   0.0 |  0.00
Output  | 0          | 0          | 0          |   0.0 |  0.00
Modify  | 0          | 0          | 0          |   0.0 |  0.00
Other   |            | 0.2562     |            |       |100.00

Nlocal:    121278 ave 121278 max 121278 min
Histogram: 1 0 0 0 0 0 0 0 0 0
Nghost:    0 ave 0 max 0 min
Histogram: 1 0 0 0 0 0 0 0 0 0
Neighs:    1.22439e+006 ave 1.22439e+006 max 1.22439e+006 min
Histogram: 1 0 0 0 0 0 0 0 0 0

Total # of neighbors = 1224394
Ave neighs/atom = 10.0958
Neighbor list builds = 0
Dangerous builds = 0
rerun LammpsDump/fracture.7504600.dump first 7504600 last 7504610 dump x y z
WARNING: No fixes defined, atoms won't move (../verlet.cpp:55)
Memory usage per processor = 21.2524 Mbytes
Step Temp TotEng 
 7504600            0            0 
Loop time of 0.254745 on 1 procs for 1 steps with 121278 atoms

Performance: 1695.813 tau/day, 3.925 timesteps/s
147.2% CPU use with 1 MPI tasks x no OpenMP threads

MPI task timing breakdown:
Section |  min time  |  avg time  |  max time  |%varavg| %total
---------------------------------------------------------------
Pair    | 0          | 0          | 0          |   0.0 |  0.00
Neigh   | 0          | 0          | 0          |   0.0 |  0.00
Comm    | 0          | 0          | 0          |   0.0 |  0.00
Output  | 0          | 0          | 0          |   0.0 |  0.00
Modify  | 0          | 0          | 0          |   0.0 |  0.00
Other   |            | 0.2547     |            |       |100.00

Nlocal:    121278 ave 121278 max 121278 min
Histogram: 1 0 0 0 0 0 0 0 0 0
Nghost:    0 ave 0 max 0 min
Histogram: 1 0 0 0 0 0 0 0 0 0
Neighs:    1.22551e+006 ave 1.22551e+006 max 1.22551e+006 min
Histogram: 1 0 0 0 0 0 0 0 0 0

Total # of neighbors = 1225513
Ave neighs/atom = 10.105
Neighbor list builds = 0
Dangerous builds = 0
rerun LammpsDump/fracture.7504750.dump first 7504750 last 7504760 dump x y z
WARNING: No fixes defined, atoms won't move (../verlet.cpp:55)
Memory usage per processor = 21.2524 Mbytes
Step Temp TotEng 
 7504750            0            0 
Loop time of 0.268331 on 1 procs for 1 steps with 121278 atoms

Performance: 1609.952 tau/day, 3.727 timesteps/s
180.5% CPU use with 1 MPI tasks x no OpenMP threads

MPI task timing breakdown:
Section |  min time  |  avg time  |  max time  |%varavg| %total
---------------------------------------------------------------
Pair    | 0          | 0          | 0          |   0.0 |  0.00
Neigh   | 0          | 0          | 0          |   0.0 |  0.00
Comm    | 0          | 0          | 0          |   0.0 |  0.00
Output  | 0          | 0          | 0          |   0.0 |  0.00
Modify  | 0          | 0          | 0          |   0.0 |  0.00
Other   |            | 0.2683     |            |       |100.00

Nlocal:    121278 ave 121278 max 121278 min
Histogram: 1 0 0 0 0 0 0 0 0 0
Nghost:    0 ave 0 max 0 min
Histogram: 1 0 0 0 0 0 0 0 0 0
Neighs:    1.226e+006 ave 1.226e+006 max 1.226e+006 min
Histogram: 1 0 0 0 0 0 0 0 0 0

Total # of neighbors = 1226004
Ave neighs/atom = 10.109
Neighbor list builds = 0
Dangerous builds = 0
rerun LammpsDump/fracture.7504900.dump first 7504900 last 7504910 dump x y z
WARNING: No fixes defined, atoms won't move (../verlet.cpp:55)
Memory usage per processor = 21.2524 Mbytes
Step Temp TotEng 
 7504900            0            0 
Loop time of 0.264787 on 1 procs for 1 steps with 121278 atoms

Performance: 1631.499 tau/day, 3.777 timesteps/s
177.0% CPU use with 1 MPI tasks x no OpenMP threads

MPI task timing breakdown:
Section |  min time  |  avg time  |  max time  |%varavg| %total
---------------------------------------------------------------
Pair    | 0          | 0          | 0          |   0.0 |  0.00
Neigh   | 0          | 0          | 0          |   0.0 |  0.00
Comm    | 0          | 0          | 0          |   0.0 |  0.00
Output  | 0          | 0          | 0          |   0.0 |  0.00
Modify  | 0          | 0          | 0          |   0.0 |  0.00
Other   |            | 0.2648     |            |       |100.00

Nlocal:    121278 ave 121278 max 121278 min
Histogram: 1 0 0 0 0 0 0 0 0 0
Nghost:    0 ave 0 max 0 min
Histogram: 1 0 0 0 0 0 0 0 0 0
Neighs:    1.22643e+006 ave 1.22643e+006 max 1.22643e+006 min
Histogram: 1 0 0 0 0 0 0 0 0 0

Total # of neighbors = 1226425
Ave neighs/atom = 10.1125
Neighbor list builds = 0
Dangerous builds = 0
rerun LammpsDump/fracture.7505050.dump first 7505050 last 7505060 dump x y z
WARNING: No fixes defined, atoms won't move (../verlet.cpp:55)
Memory usage per processor = 21.2524 Mbytes
Step Temp TotEng 
 7505050            0            0 
Loop time of 0.264254 on 1 procs for 1 steps with 121278 atoms

Performance: 1634.790 tau/day, 3.784 timesteps/s
195.1% CPU use with 1 MPI tasks x no OpenMP threads

MPI task timing breakdown:
Section |  min time  |  avg time  |  max time  |%varavg| %total
---------------------------------------------------------------
Pair    | 0          | 0          | 0          |   0.0 |  0.00
Neigh   | 0          | 0          | 0          |   0.0 |  0.00
Comm    | 0          | 0          | 0          |   0.0 |  0.00
Output  | 0          | 0          | 0          |   0.0 |  0.00
Modify  | 0          | 0          | 0          |   0.0 |  0.00
Other   |            | 0.2643     |            |       |100.00

Nlocal:    121278 ave 121278 max 121278 min
Histogram: 1 0 0 0 0 0 0 0 0 0
Nghost:    0 ave 0 max 0 min
Histogram: 1 0 0 0 0 0 0 0 0 0
Neighs:    1.22559e+006 ave 1.22559e+006 max 1.22559e+006 min
Histogram: 1 0 0 0 0 0 0 0 0 0

Total # of neighbors = 1225587
Ave neighs/atom = 10.1056
Neighbor list builds = 0
Dangerous builds = 0
rerun LammpsDump/fracture.7505200.dump first 7505200 last 7505210 dump x y z
WARNING: No fixes defined, atoms won't move (../verlet.cpp:55)
Memory usage per processor = 21.2524 Mbytes
Step Temp TotEng 
 7505200            0            0 
Loop time of 0.263819 on 1 procs for 1 steps with 121278 atoms

Performance: 1637.485 tau/day, 3.790 timesteps/s
165.8% CPU use with 1 MPI tasks x no OpenMP threads

MPI task timing breakdown:
Section |  min time  |  avg time  |  max time  |%varavg| %total
---------------------------------------------------------------
Pair    | 0          | 0          | 0          |   0.0 |  0.00
Neigh   | 0          | 0          | 0          |   0.0 |  0.00
Comm    | 0          | 0          | 0          |   0.0 |  0.00
Output  | 0          | 0          | 0          |   0.0 |  0.00
Modify  | 0          | 0          | 0          |   0.0 |  0.00
Other   |            | 0.2638     |            |       |100.00

Nlocal:    121278 ave 121278 max 121278 min
Histogram: 1 0 0 0 0 0 0 0 0 0
Nghost:    0 ave 0 max 0 min
Histogram: 1 0 0 0 0 0 0 0 0 0
Neighs:    1.22602e+006 ave 1.22602e+006 max 1.22602e+006 min
Histogram: 1 0 0 0 0 0 0 0 0 0

Total # of neighbors = 1226016
Ave neighs/atom = 10.1091
Neighbor list builds = 0
Dangerous builds = 0
rerun LammpsDump/fracture.7505350.dump first 7505350 last 7505360 dump x y z
WARNING: No fixes defined, atoms won't move (../verlet.cpp:55)
Memory usage per processor = 21.2524 Mbytes
Step Temp TotEng 
 7505350            0            0 
Loop time of 0.264754 on 1 procs for 1 steps with 121278 atoms

Performance: 1631.703 tau/day, 3.777 timesteps/s
188.9% CPU use with 1 MPI tasks x no OpenMP threads

MPI task timing breakdown:
Section |  min time  |  avg time  |  max time  |%varavg| %total
---------------------------------------------------------------
Pair    | 0          | 0          | 0          |   0.0 |  0.00
Neigh   | 0          | 0          | 0          |   0.0 |  0.00
Comm    | 0          | 0          | 0          |   0.0 |  0.00
Output  | 0          | 0          | 0          |   0.0 |  0.00
Modify  | 0          | 0          | 0          |   0.0 |  0.00
Other   |            | 0.2648     |            |       |100.00

Nlocal:    121278 ave 121278 max 121278 min
Histogram: 1 0 0 0 0 0 0 0 0 0
Nghost:    0 ave 0 max 0 min
Histogram: 1 0 0 0 0 0 0 0 0 0
Neighs:    1.22608e+006 ave 1.22608e+006 max 1.22608e+006 min
Histogram: 1 0 0 0 0 0 0 0 0 0

Total # of neighbors = 1226076
Ave neighs/atom = 10.1096
Neighbor list builds = 0
Dangerous builds = 0
rerun LammpsDump/fracture.7505500.dump first 7505500 last 7505510 dump x y z
WARNING: No fixes defined, atoms won't move (../verlet.cpp:55)
Memory usage per processor = 21.2524 Mbytes
Step Temp TotEng 
 7505500            0            0 
Loop time of 0.259259 on 1 procs for 1 steps with 121278 atoms

Performance: 1666.287 tau/day, 3.857 timesteps/s
204.9% CPU use with 1 MPI tasks x no OpenMP threads

MPI task timing breakdown:
Section |  min time  |  avg time  |  max time  |%varavg| %total
---------------------------------------------------------------
Pair    | 0          | 0          | 0          |   0.0 |  0.00
Neigh   | 0          | 0          | 0          |   0.0 |  0.00
Comm    | 0          | 0          | 0          |   0.0 |  0.00
Output  | 0          | 0          | 0          |   0.0 |  0.00
Modify  | 0          | 0          | 0          |   0.0 |  0.00
Other   |            | 0.2593     |            |       |100.00

Nlocal:    121278 ave 121278 max 121278 min
Histogram: 1 0 0 0 0 0 0 0 0 0
Nghost:    0 ave 0 max 0 min
Histogram: 1 0 0 0 0 0 0 0 0 0
Neighs:    1.22593e+006 ave 1.22593e+006 max 1.22593e+006 min
Histogram: 1 0 0 0 0 0 0 0 0 0

Total # of neighbors = 1225929
Ave neighs/atom = 10.1084
Neighbor list builds = 0
Dangerous builds = 0
rerun LammpsDump/fracture.7505650.dump first 7505650 last 7505660 dump x y z
WARNING: No fixes defined, atoms won't move (../verlet.cpp:55)
Memory usage per processor = 21.2524 Mbytes
Step Temp TotEng 
 7505650            0            0 
Loop time of 0.261772 on 1 procs for 1 steps with 121278 atoms

Performance: 1650.290 tau/day, 3.820 timesteps/s
179.1% CPU use with 1 MPI tasks x no OpenMP threads

MPI task timing breakdown:
Section |  min time  |  avg time  |  max time  |%varavg| %total
---------------------------------------------------------------
Pair    | 0          | 0          | 0          |   0.0 |  0.00
Neigh   | 0          | 0          | 0          |   0.0 |  0.00
Comm    | 0          | 0          | 0          |   0.0 |  0.00
Output  | 0          | 0          | 0          |   0.0 |  0.00
Modify  | 0          | 0          | 0          |   0.0 |  0.00
Other   |            | 0.2618     |            |       |100.00

Nlocal:    121278 ave 121278 max 121278 min
Histogram: 1 0 0 0 0 0 0 0 0 0
Nghost:    0 ave 0 max 0 min
Histogram: 1 0 0 0 0 0 0 0 0 0
Neighs:    1.22616e+006 ave 1.22616e+006 max 1.22616e+006 min
Histogram: 1 0 0 0 0 0 0 0 0 0

Total # of neighbors = 1226158
Ave neighs/atom = 10.1103
Neighbor list builds = 0
Dangerous builds = 0
rerun LammpsDump/fracture.7505800.dump first 7505800 last 7505810 dump x y z
WARNING: No fixes defined, atoms won't move (../verlet.cpp:55)
Memory usage per processor = 21.2524 Mbytes
Step Temp TotEng 
 7505800            0            0 
Loop time of 0.29128 on 1 procs for 1 steps with 121278 atoms

Performance: 1483.109 tau/day, 3.433 timesteps/s
171.7% CPU use with 1 MPI tasks x no OpenMP threads

MPI task timing breakdown:
Section |  min time  |  avg time  |  max time  |%varavg| %total
---------------------------------------------------------------
Pair    | 0          | 0          | 0          |   0.0 |  0.00
Neigh   | 0          | 0          | 0          |   0.0 |  0.00
Comm    | 0          | 0          | 0          |   0.0 |  0.00
Output  | 0          | 0          | 0          |   0.0 |  0.00
Modify  | 0          | 0          | 0          |   0.0 |  0.00
Other   |            | 0.2913     |            |       |100.00

Nlocal:    121278 ave 121278 max 121278 min
Histogram: 1 0 0 0 0 0 0 0 0 0
Nghost:    0 ave 0 max 0 min
Histogram: 1 0 0 0 0 0 0 0 0 0
Neighs:    1.22635e+006 ave 1.22635e+006 max 1.22635e+006 min
Histogram: 1 0 0 0 0 0 0 0 0 0

Total # of neighbors = 1226353
Ave neighs/atom = 10.1119
Neighbor list builds = 0
Dangerous builds = 0
rerun LammpsDump/fracture.7505950.dump first 7505950 last 7505960 dump x y z
WARNING: No fixes defined, atoms won't move (../verlet.cpp:55)
Memory usage per processor = 21.2524 Mbytes
Step Temp TotEng 
 7505950            0            0 
Loop time of 0.26025 on 1 procs for 1 steps with 121278 atoms

Performance: 1659.942 tau/day, 3.842 timesteps/s
198.1% CPU use with 1 MPI tasks x no OpenMP threads

MPI task timing breakdown:
Section |  min time  |  avg time  |  max time  |%varavg| %total
---------------------------------------------------------------
Pair    | 0          | 0          | 0          |   0.0 |  0.00
Neigh   | 0          | 0          | 0          |   0.0 |  0.00
Comm    | 0          | 0          | 0          |   0.0 |  0.00
Output  | 0          | 0          | 0          |   0.0 |  0.00
Modify  | 0          | 0          | 0          |   0.0 |  0.00
Other   |            | 0.2603     |            |       |100.00

Nlocal:    121278 ave 121278 max 121278 min
Histogram: 1 0 0 0 0 0 0 0 0 0
Nghost:    0 ave 0 max 0 min
Histogram: 1 0 0 0 0 0 0 0 0 0
Neighs:    1.22656e+006 ave 1.22656e+006 max 1.22656e+006 min
Histogram: 1 0 0 0 0 0 0 0 0 0

Total # of neighbors = 1226559
Ave neighs/atom = 10.1136
Neighbor list builds = 0
Dangerous builds = 0
rerun LammpsDump/fracture.7506100.dump first 7506100 last 7506110 dump x y z
WARNING: No fixes defined, atoms won't move (../verlet.cpp:55)
Memory usage per processor = 21.2524 Mbytes
Step Temp TotEng 
 7506100            0            0 
Loop time of 0.266756 on 1 procs for 1 steps with 121278 atoms

Performance: 1619.457 tau/day, 3.749 timesteps/s
205.0% CPU use with 1 MPI tasks x no OpenMP threads

MPI task timing breakdown:
Section |  min time  |  avg time  |  max time  |%varavg| %total
---------------------------------------------------------------
Pair    | 0          | 0          | 0          |   0.0 |  0.00
Neigh   | 0          | 0          | 0          |   0.0 |  0.00
Comm    | 0          | 0          | 0          |   0.0 |  0.00
Output  | 0          | 0          | 0          |   0.0 |  0.00
Modify  | 0          | 0          | 0          |   0.0 |  0.00
Other   |            | 0.2668     |            |       |100.00

Nlocal:    121278 ave 121278 max 121278 min
Histogram: 1 0 0 0 0 0 0 0 0 0
Nghost:    0 ave 0 max 0 min
Histogram: 1 0 0 0 0 0 0 0 0 0
Neighs:    1.22625e+006 ave 1.22625e+006 max 1.22625e+006 min
Histogram: 1 0 0 0 0 0 0 0 0 0

Total # of neighbors = 1226247
Ave neighs/atom = 10.111
Neighbor list builds = 0
Dangerous builds = 0
rerun LammpsDump/fracture.7506250.dump first 7506250 last 7506260 dump x y z
WARNING: No fixes defined, atoms won't move (../verlet.cpp:55)
Memory usage per processor = 21.2524 Mbytes
Step Temp TotEng 
 7506250            0            0 
Loop time of 0.299102 on 1 procs for 1 steps with 121278 atoms

Performance: 1444.324 tau/day, 3.343 timesteps/s
177.6% CPU use with 1 MPI tasks x no OpenMP threads

MPI task timing breakdown:
Section |  min time  |  avg time  |  max time  |%varavg| %total
---------------------------------------------------------------
Pair    | 0          | 0          | 0          |   0.0 |  0.00
Neigh   | 0          | 0          | 0          |   0.0 |  0.00
Comm    | 0          | 0          | 0          |   0.0 |  0.00
Output  | 0          | 0          | 0          |   0.0 |  0.00
Modify  | 0          | 0          | 0          |   0.0 |  0.00
Other   |            | 0.2991     |            |       |100.00

Nlocal:    121278 ave 121278 max 121278 min
Histogram: 1 0 0 0 0 0 0 0 0 0
Nghost:    0 ave 0 max 0 min
Histogram: 1 0 0 0 0 0 0 0 0 0
Neighs:    1.22626e+006 ave 1.22626e+006 max 1.22626e+006 min
Histogram: 1 0 0 0 0 0 0 0 0 0

Total # of neighbors = 1226258
Ave neighs/atom = 10.1111
Neighbor list builds = 0
Dangerous builds = 0
rerun LammpsDump/fracture.7506400.dump first 7506400 last 7506410 dump x y z
WARNING: No fixes defined, atoms won't move (../verlet.cpp:55)
Memory usage per processor = 21.2524 Mbytes
Step Temp TotEng 
 7506400            0            0 
Loop time of 0.271761 on 1 procs for 1 steps with 121278 atoms

Performance: 1589.632 tau/day, 3.680 timesteps/s
264.5% CPU use with 1 MPI tasks x no OpenMP threads

MPI task timing breakdown:
Section |  min time  |  avg time  |  max time  |%varavg| %total
---------------------------------------------------------------
Pair    | 0          | 0          | 0          |   0.0 |  0.00
Neigh   | 0          | 0          | 0          |   0.0 |  0.00
Comm    | 0          | 0          | 0          |   0.0 |  0.00
Output  | 0          | 0          | 0          |   0.0 |  0.00
Modify  | 0          | 0          | 0          |   0.0 |  0.00
Other   |            | 0.2718     |            |       |100.00

Nlocal:    121278 ave 121278 max 121278 min
Histogram: 1 0 0 0 0 0 0 0 0 0
Nghost:    0 ave 0 max 0 min
Histogram: 1 0 0 0 0 0 0 0 0 0
Neighs:    1.22592e+006 ave 1.22592e+006 max 1.22592e+006 min
Histogram: 1 0 0 0 0 0 0 0 0 0

Total # of neighbors = 1225923
Ave neighs/atom = 10.1084
Neighbor list builds = 0
Dangerous builds = 0
rerun LammpsDump/fracture.7506550.dump first 7506550 last 7506560 dump x y z
WARNING: No fixes defined, atoms won't move (../verlet.cpp:55)
Memory usage per processor = 21.2524 Mbytes
Step Temp TotEng 
 7506550            0            0 
Loop time of 0.258742 on 1 procs for 1 steps with 121278 atoms

Performance: 1669.616 tau/day, 3.865 timesteps/s
187.2% CPU use with 1 MPI tasks x no OpenMP threads

MPI task timing breakdown:
Section |  min time  |  avg time  |  max time  |%varavg| %total
---------------------------------------------------------------
Pair    | 0          | 0          | 0          |   0.0 |  0.00
Neigh   | 0          | 0          | 0          |   0.0 |  0.00
Comm    | 0          | 0          | 0          |   0.0 |  0.00
Output  | 0          | 0          | 0          |   0.0 |  0.00
Modify  | 0          | 0          | 0          |   0.0 |  0.00
Other   |            | 0.2587     |            |       |100.00

Nlocal:    121278 ave 121278 max 121278 min
Histogram: 1 0 0 0 0 0 0 0 0 0
Nghost:    0 ave 0 max 0 min
Histogram: 1 0 0 0 0 0 0 0 0 0
Neighs:    1.22666e+006 ave 1.22666e+006 max 1.22666e+006 min
Histogram: 1 0 0 0 0 0 0 0 0 0

Total # of neighbors = 1226655
Ave neighs/atom = 10.1144
Neighbor list builds = 0
Dangerous builds = 0
rerun LammpsDump/fracture.7506700.dump first 7506700 last 7506710 dump x y z
WARNING: No fixes defined, atoms won't move (../verlet.cpp:55)
Memory usage per processor = 21.2524 Mbytes
Step Temp TotEng 
 7506700            0            0 
Loop time of 0.273778 on 1 procs for 1 steps with 121278 atoms

Performance: 1577.921 tau/day, 3.653 timesteps/s
176.9% CPU use with 1 MPI tasks x no OpenMP threads

MPI task timing breakdown:
Section |  min time  |  avg time  |  max time  |%varavg| %total
---------------------------------------------------------------
Pair    | 0          | 0          | 0          |   0.0 |  0.00
Neigh   | 0          | 0          | 0          |   0.0 |  0.00
Comm    | 0          | 0          | 0          |   0.0 |  0.00
Output  | 0          | 0          | 0          |   0.0 |  0.00
Modify  | 0          | 0          | 0          |   0.0 |  0.00
Other   |            | 0.2738     |            |       |100.00

Nlocal:    121278 ave 121278 max 121278 min
Histogram: 1 0 0 0 0 0 0 0 0 0
Nghost:    0 ave 0 max 0 min
Histogram: 1 0 0 0 0 0 0 0 0 0
Neighs:    1.22716e+006 ave 1.22716e+006 max 1.22716e+006 min
Histogram: 1 0 0 0 0 0 0 0 0 0

Total # of neighbors = 1227160
Ave neighs/atom = 10.1186
Neighbor list builds = 0
Dangerous builds = 0
rerun LammpsDump/fracture.7506850.dump first 7506850 last 7506860 dump x y z
WARNING: No fixes defined, atoms won't move (../verlet.cpp:55)
Memory usage per processor = 21.2524 Mbytes
Step Temp TotEng 
 7506850            0            0 
Loop time of 0.268795 on 1 procs for 1 steps with 121278 atoms

Performance: 1607.173 tau/day, 3.720 timesteps/s
180.2% CPU use with 1 MPI tasks x no OpenMP threads

MPI task timing breakdown:
Section |  min time  |  avg time  |  max time  |%varavg| %total
---------------------------------------------------------------
Pair    | 0          | 0          | 0          |   0.0 |  0.00
Neigh   | 0          | 0          | 0          |   0.0 |  0.00
Comm    | 0          | 0          | 0          |   0.0 |  0.00
Output  | 0          | 0          | 0          |   0.0 |  0.00
Modify  | 0          | 0          | 0          |   0.0 |  0.00
Other   |            | 0.2688     |            |       |100.00

Nlocal:    121278 ave 121278 max 121278 min
Histogram: 1 0 0 0 0 0 0 0 0 0
Nghost:    0 ave 0 max 0 min
Histogram: 1 0 0 0 0 0 0 0 0 0
Neighs:    1.22772e+006 ave 1.22772e+006 max 1.22772e+006 min
Histogram: 1 0 0 0 0 0 0 0 0 0

Total # of neighbors = 1227717
Ave neighs/atom = 10.1232
Neighbor list builds = 0
Dangerous builds = 0
rerun LammpsDump/fracture.7507000.dump first 7507000 last 7507010 dump x y z
WARNING: No fixes defined, atoms won't move (../verlet.cpp:55)
Memory usage per processor = 21.2524 Mbytes
Step Temp TotEng 
 7507000            0            0 
Loop time of 0.260761 on 1 procs for 1 steps with 121278 atoms

Performance: 1656.689 tau/day, 3.835 timesteps/s
209.7% CPU use with 1 MPI tasks x no OpenMP threads

MPI task timing breakdown:
Section |  min time  |  avg time  |  max time  |%varavg| %total
---------------------------------------------------------------
Pair    | 0          | 0          | 0          |   0.0 |  0.00
Neigh   | 0          | 0          | 0          |   0.0 |  0.00
Comm    | 0          | 0          | 0          |   0.0 |  0.00
Output  | 0          | 0          | 0          |   0.0 |  0.00
Modify  | 0          | 0          | 0          |   0.0 |  0.00
Other   |            | 0.2608     |            |       |100.00

Nlocal:    121278 ave 121278 max 121278 min
Histogram: 1 0 0 0 0 0 0 0 0 0
Nghost:    0 ave 0 max 0 min
Histogram: 1 0 0 0 0 0 0 0 0 0
Neighs:    1.22793e+006 ave 1.22793e+006 max 1.22793e+006 min
Histogram: 1 0 0 0 0 0 0 0 0 0

Total # of neighbors = 1227932
Ave neighs/atom = 10.1249
Neighbor list builds = 0
Dangerous builds = 0
rerun LammpsDump/fracture.7507150.dump first 7507150 last 7507160 dump x y z
WARNING: No fixes defined, atoms won't move (../verlet.cpp:55)
Memory usage per processor = 21.2524 Mbytes
Step Temp TotEng 
 7507150            0            0 
Loop time of 0.260751 on 1 procs for 1 steps with 121278 atoms

[...]
219.5% CPU use with 1 MPI tasks x no OpenMP threads

MPI task timing breakdown:
Section |  min time  |  avg time  |  max time  |%varavg| %total
---------------------------------------------------------------
Pair    | 0          | 0          | 0          |   0.0 |  0.00
Neigh   | 0          | 0          | 0          |   0.0 |  0.00
Comm    | 0          | 0          | 0          |   0.0 |  0.00
Output  | 0          | 0          | 0          |   0.0 |  0.00
Modify  | 0          | 0          | 0          |   0.0 |  0.00
Other   |            | 0.2562     |            |       |100.00

Nlocal:    121278 ave 121278 max 121278 min
Histogram: 1 0 0 0 0 0 0 0 0 0
Nghost:    0 ave 0 max 0 min
Histogram: 1 0 0 0 0 0 0 0 0 0
Neighs:    1.16584e+006 ave 1.16584e+006 max 1.16584e+006 min
Histogram: 1 0 0 0 0 0 0 0 0 0

Total # of neighbors = 1165837
Ave neighs/atom = 9.61293
Neighbor list builds = 0
Dangerous builds = 0
rerun LammpsDump/fracture.7499200.dump first 7499200 last 7499210 dump x y z
WARNING: No fixes defined, atoms won't move (../verlet.cpp:55)
Memory usage per processor = 21.2524 Mbytes
Step Temp TotEng 
 7499200            0            0 
Loop time of 0.261655 on 1 procs for 1 steps with 121278 atoms

Performance: 1651.028 tau/day, 3.822 timesteps/s
155.3% CPU use with 1 MPI tasks x no OpenMP threads

MPI task timing breakdown:
Section |  min time  |  avg time  |  max time  |%varavg| %total
---------------------------------------------------------------
Pair    | 0          | 0          | 0          |   0.0 |  0.00
Neigh   | 0          | 0          | 0          |   0.0 |  0.00
Comm    | 0          | 0          | 0          |   0.0 |  0.00
Output  | 0          | 0          | 0          |   0.0 |  0.00
Modify  | 0          | 0          | 0          |   0.0 |  0.00
Other   |            | 0.2617     |            |       |100.00

Nlocal:    121278 ave 121278 max 121278 min
Histogram: 1 0 0 0 0 0 0 0 0 0
Nghost:    0 ave 0 max 0 min
Histogram: 1 0 0 0 0 0 0 0 0 0
Neighs:    1.16742e+006 ave 1.16742e+006 max 1.16742e+006 min
Histogram: 1 0 0 0 0 0 0 0 0 0

Total # of neighbors = 1167416
Ave neighs/atom = 9.62595
Neighbor list builds = 0
Dangerous builds = 0
rerun LammpsDump/fracture.7499350.dump first 7499350 last 7499360 dump x y z
WARNING: No fixes defined, atoms won't move (../verlet.cpp:55)
Memory usage per processor = 21.2524 Mbytes
Step Temp TotEng 
 7499350            0            0 
Loop time of 0.25828 on 1 procs for 1 steps with 121278 atoms

Performance: 1672.603 tau/day, 3.872 timesteps/s
205.7% CPU use with 1 MPI tasks x no OpenMP threads

MPI task timing breakdown:
Section |  min time  |  avg time  |  max time  |%varavg| %total
---------------------------------------------------------------
Pair    | 0          | 0          | 0          |   0.0 |  0.00
Neigh   | 0          | 0          | 0          |   0.0 |  0.00
Comm    | 0          | 0          | 0          |   0.0 |  0.00
Output  | 0          | 0          | 0          |   0.0 |  0.00
Modify  | 0          | 0          | 0          |   0.0 |  0.00
Other   |            | 0.2583     |            |       |100.00

Nlocal:    121278 ave 121278 max 121278 min
Histogram: 1 0 0 0 0 0 0 0 0 0
Nghost:    0 ave 0 max 0 min
Histogram: 1 0 0 0 0 0 0 0 0 0
Neighs:    1.16912e+006 ave 1.16912e+006 max 1.16912e+006 min
Histogram: 1 0 0 0 0 0 0 0 0 0

Total # of neighbors = 1169116
Ave neighs/atom = 9.63997
Neighbor list builds = 0
Dangerous builds = 0
rerun LammpsDump/fracture.7499500.dump first 7499500 last 7499510 dump x y z
WARNING: No fixes defined, atoms won't move (../verlet.cpp:55)
Memory usage per processor = 21.2524 Mbytes
Step Temp TotEng 
 7499500            0            0 
Loop time of 0.255228 on 1 procs for 1 steps with 121278 atoms

Performance: 1692.604 tau/day, 3.918 timesteps/s
202.0% CPU use with 1 MPI tasks x no OpenMP threads

MPI task timing breakdown:
Section |  min time  |  avg time  |  max time  |%varavg| %total
---------------------------------------------------------------
Pair    | 0          | 0          | 0          |   0.0 |  0.00
Neigh   | 0          | 0          | 0          |   0.0 |  0.00
Comm    | 0          | 0          | 0          |   0.0 |  0.00
Output  | 0          | 0          | 0          |   0.0 |  0.00
Modify  | 0          | 0          | 0          |   0.0 |  0.00
Other   |            | 0.2552     |            |       |100.00

Nlocal:    121278 ave 121278 max 121278 min
Histogram: 1 0 0 0 0 0 0 0 0 0
Nghost:    0 ave 0 max 0 min
Histogram: 1 0 0 0 0 0 0 0 0 0
Neighs:    1.17088e+006 ave 1.17088e+006 max 1.17088e+006 min
Histogram: 1 0 0 0 0 0 0 0 0 0

Total # of neighbors = 1170878
Ave neighs/atom = 9.6545
Neighbor list builds = 0
Dangerous builds = 0
rerun LammpsDump/fracture.7499650.dump first 7499650 last 7499660 dump x y z
WARNING: No fixes defined, atoms won't move (../verlet.cpp:55)
Memory usage per processor = 21.2524 Mbytes
Step Temp TotEng 
 7499650            0            0 
Loop time of 0.26233 on 1 procs for 1 steps with 121278 atoms

Performance: 1646.780 tau/day, 3.812 timesteps/s
220.4% CPU use with 1 MPI tasks x no OpenMP threads

MPI task timing breakdown:
Section |  min time  |  avg time  |  max time  |%varavg| %total
---------------------------------------------------------------
Pair    | 0          | 0          | 0          |   0.0 |  0.00
Neigh   | 0          | 0          | 0          |   0.0 |  0.00
Comm    | 0          | 0          | 0          |   0.0 |  0.00
Output  | 0          | 0          | 0          |   0.0 |  0.00
Modify  | 0          | 0          | 0          |   0.0 |  0.00
Other   |            | 0.2623     |            |       |100.00

Nlocal:    121278 ave 121278 max 121278 min
Histogram: 1 0 0 0 0 0 0 0 0 0
Nghost:    0 ave 0 max 0 min
Histogram: 1 0 0 0 0 0 0 0 0 0
Neighs:    1.17264e+006 ave 1.17264e+006 max 1.17264e+006 min
Histogram: 1 0 0 0 0 0 0 0 0 0

Total # of neighbors = 1172636
Ave neighs/atom = 9.66899
Neighbor list builds = 0
Dangerous builds = 0
rerun LammpsDump/fracture.7499800.dump first 7499800 last 7499810 dump x y z
WARNING: No fixes defined, atoms won't move (../verlet.cpp:55)
Memory usage per processor = 21.2524 Mbytes
Step Temp TotEng 
 7499800            0            0 
Loop time of 0.258287 on 1 procs for 1 steps with 121278 atoms

Performance: 1672.558 tau/day, 3.872 timesteps/s
199.6% CPU use with 1 MPI tasks x no OpenMP threads

MPI task timing breakdown:
Section |  min time  |  avg time  |  max time  |%varavg| %total
---------------------------------------------------------------
Pair    | 0          | 0          | 0          |   0.0 |  0.00
Neigh   | 0          | 0          | 0          |   0.0 |  0.00
Comm    | 0          | 0          | 0          |   0.0 |  0.00
Output  | 0          | 0          | 0          |   0.0 |  0.00
Modify  | 0          | 0          | 0          |   0.0 |  0.00
Other   |            | 0.2583     |            |       |100.00

Nlocal:    121278 ave 121278 max 121278 min
Histogram: 1 0 0 0 0 0 0 0 0 0
Nghost:    0 ave 0 max 0 min
Histogram: 1 0 0 0 0 0 0 0 0 0
Neighs:    1.17457e+006 ave 1.17457e+006 max 1.17457e+006 min
Histogram: 1 0 0 0 0 0 0 0 0 0

Total # of neighbors = 1174572
Ave neighs/atom = 9.68496
Neighbor list builds = 0
Dangerous builds = 0
rerun LammpsDump/fracture.7499950.dump first 7499950 last 7499960 dump x y z
WARNING: No fixes defined, atoms won't move (../verlet.cpp:55)
Memory usage per processor = 21.2524 Mbytes
Step Temp TotEng 
 7499950            0            0 
Loop time of 0.26227 on 1 procs for 1 steps with 121278 atoms

Performance: 1647.158 tau/day, 3.813 timesteps/s
166.8% CPU use with 1 MPI tasks x no OpenMP threads

MPI task timing breakdown:
Section |  min time  |  avg time  |  max time  |%varavg| %total
---------------------------------------------------------------
Pair    | 0          | 0          | 0          |   0.0 |  0.00
Neigh   | 0          | 0          | 0          |   0.0 |  0.00
Comm    | 0          | 0          | 0          |   0.0 |  0.00
Output  | 0          | 0          | 0          |   0.0 |  0.00
Modify  | 0          | 0          | 0          |   0.0 |  0.00
Other   |            | 0.2623     |            |       |100.00

Nlocal:    121278 ave 121278 max 121278 min
Histogram: 1 0 0 0 0 0 0 0 0 0
Nghost:    0 ave 0 max 0 min
Histogram: 1 0 0 0 0 0 0 0 0 0
Neighs:    1.17593e+006 ave 1.17593e+006 max 1.17593e+006 min
Histogram: 1 0 0 0 0 0 0 0 0 0

Total # of neighbors = 1175932
Ave neighs/atom = 9.69617
Neighbor list builds = 0
Dangerous builds = 0
rerun LammpsDump/fracture.7500100.dump first 7500100 last 7500110 dump x y z
WARNING: No fixes defined, atoms won't move (../verlet.cpp:55)
Memory usage per processor = 21.2524 Mbytes
Step Temp TotEng 
 7500100            0            0 
Loop time of 0.260279 on 1 procs for 1 steps with 121278 atoms

Performance: 1659.756 tau/day, 3.842 timesteps/s
192.1% CPU use with 1 MPI tasks x no OpenMP threads

MPI task timing breakdown:
Section |  min time  |  avg time  |  max time  |%varavg| %total
---------------------------------------------------------------
Pair    | 0          | 0          | 0          |   0.0 |  0.00
Neigh   | 0          | 0          | 0          |   0.0 |  0.00
Comm    | 0          | 0          | 0          |   0.0 |  0.00
Output  | 0          | 0          | 0          |   0.0 |  0.00
Modify  | 0          | 0          | 0          |   0.0 |  0.00
Other   |            | 0.2603     |            |       |100.00

Nlocal:    121278 ave 121278 max 121278 min
Histogram: 1 0 0 0 0 0 0 0 0 0
Nghost:    0 ave 0 max 0 min
Histogram: 1 0 0 0 0 0 0 0 0 0
Neighs:    1.17831e+006 ave 1.17831e+006 max 1.17831e+006 min
Histogram: 1 0 0 0 0 0 0 0 0 0

Total # of neighbors = 1178313
Ave neighs/atom = 9.7158
Neighbor list builds = 0
Dangerous builds = 0
rerun LammpsDump/fracture.7500250.dump first 7500250 last 7500260 dump x y z
WARNING: No fixes defined, atoms won't move (../verlet.cpp:55)
Memory usage per processor = 21.2524 Mbytes
Step Temp TotEng 
 7500250            0            0 
Loop time of 0.256732 on 1 procs for 1 steps with 121278 atoms

Performance: 1682.687 tau/day, 3.895 timesteps/s
170.4% CPU use with 1 MPI tasks x no OpenMP threads

MPI task timing breakdown:
Section |  min time  |  avg time  |  max time  |%varavg| %total
---------------------------------------------------------------
Pair    | 0          | 0          | 0          |   0.0 |  0.00
Neigh   | 0          | 0          | 0          |   0.0 |  0.00
Comm    | 0          | 0          | 0          |   0.0 |  0.00
Output  | 0          | 0          | 0          |   0.0 |  0.00
Modify  | 0          | 0          | 0          |   0.0 |  0.00
Other   |            | 0.2567     |            |       |100.00

Nlocal:    121278 ave 121278 max 121278 min
Histogram: 1 0 0 0 0 0 0 0 0 0
Nghost:    0 ave 0 max 0 min
Histogram: 1 0 0 0 0 0 0 0 0 0
Neighs:    1.18031e+006 ave 1.18031e+006 max 1.18031e+006 min
Histogram: 1 0 0 0 0 0 0 0 0 0

Total # of neighbors = 1180307
Ave neighs/atom = 9.73224
Neighbor list builds = 0
Dangerous builds = 0
rerun LammpsDump/fracture.7500400.dump first 7500400 last 7500410 dump x y z
WARNING: No fixes defined, atoms won't move (../verlet.cpp:55)
Memory usage per processor = 21.2524 Mbytes
Step Temp TotEng 
 7500400            0            0 
Loop time of 0.253756 on 1 procs for 1 steps with 121278 atoms

Performance: 1702.422 tau/day, 3.941 timesteps/s
153.9% CPU use with 1 MPI tasks x no OpenMP threads

MPI task timing breakdown:
Section |  min time  |  avg time  |  max time  |%varavg| %total
---------------------------------------------------------------
Pair    | 0          | 0          | 0          |   0.0 |  0.00
Neigh   | 0          | 0          | 0          |   0.0 |  0.00
Comm    | 0          | 0          | 0          |   0.0 |  0.00
Output  | 0          | 0          | 0          |   0.0 |  0.00
Modify  | 0          | 0          | 0          |   0.0 |  0.00
Other   |            | 0.2538     |            |       |100.00

Nlocal:    121278 ave 121278 max 121278 min
Histogram: 1 0 0 0 0 0 0 0 0 0
Nghost:    0 ave 0 max 0 min
Histogram: 1 0 0 0 0 0 0 0 0 0
Neighs:    1.18208e+006 ave 1.18208e+006 max 1.18208e+006 min
Histogram: 1 0 0 0 0 0 0 0 0 0

Total # of neighbors = 1182077
Ave neighs/atom = 9.74684
Neighbor list builds = 0
Dangerous builds = 0
rerun LammpsDump/fracture.7500550.dump first 7500550 last 7500560 dump x y z
WARNING: No fixes defined, atoms won't move (../verlet.cpp:55)
Memory usage per processor = 21.2524 Mbytes
Step Temp TotEng 
 7500550            0            0 
Loop time of 0.252743 on 1 procs for 1 steps with 121278 atoms

Performance: 1709.246 tau/day, 3.957 timesteps/s
179.3% CPU use with 1 MPI tasks x no OpenMP threads

MPI task timing breakdown:
Section |  min time  |  avg time  |  max time  |%varavg| %total
---------------------------------------------------------------
Pair    | 0          | 0          | 0          |   0.0 |  0.00
Neigh   | 0          | 0          | 0          |   0.0 |  0.00
Comm    | 0          | 0          | 0          |   0.0 |  0.00
Output  | 0          | 0          | 0          |   0.0 |  0.00
Modify  | 0          | 0          | 0          |   0.0 |  0.00
Other   |            | 0.2527     |            |       |100.00

Nlocal:    121278 ave 121278 max 121278 min
Histogram: 1 0 0 0 0 0 0 0 0 0
Nghost:    0 ave 0 max 0 min
Histogram: 1 0 0 0 0 0 0 0 0 0
Neighs:    1.18415e+006 ave 1.18415e+006 max 1.18415e+006 min
Histogram: 1 0 0 0 0 0 0 0 0 0

Total # of neighbors = 1184145
Ave neighs/atom = 9.76389
Neighbor list builds = 0
Dangerous builds = 0
rerun LammpsDump/fracture.7500700.dump first 7500700 last 7500710 dump x y z
WARNING: No fixes defined, atoms won't move (../verlet.cpp:55)
Memory usage per processor = 21.2524 Mbytes
Step Temp TotEng 
 7500700            0            0 
Loop time of 0.262282 on 1 procs for 1 steps with 121278 atoms

Performance: 1647.083 tau/day, 3.813 timesteps/s
190.6% CPU use with 1 MPI tasks x no OpenMP threads

MPI task timing breakdown:
Section |  min time  |  avg time  |  max time  |%varavg| %total
---------------------------------------------------------------
Pair    | 0          | 0          | 0          |   0.0 |  0.00
Neigh   | 0          | 0          | 0          |   0.0 |  0.00
Comm    | 0          | 0          | 0          |   0.0 |  0.00
Output  | 0          | 0          | 0          |   0.0 |  0.00
Modify  | 0          | 0          | 0          |   0.0 |  0.00
Other   |            | 0.2623     |            |       |100.00

Nlocal:    121278 ave 121278 max 121278 min
Histogram: 1 0 0 0 0 0 0 0 0 0
Nghost:    0 ave 0 max 0 min
Histogram: 1 0 0 0 0 0 0 0 0 0
Neighs:    1.18651e+006 ave 1.18651e+006 max 1.18651e+006 min
Histogram: 1 0 0 0 0 0 0 0 0 0

Total # of neighbors = 1186507
Ave neighs/atom = 9.78337
Neighbor list builds = 0
Dangerous builds = 0
rerun LammpsDump/fracture.7500850.dump first 7500850 last 7500860 dump x y z
WARNING: No fixes defined, atoms won't move (../verlet.cpp:55)
Memory usage per processor = 21.2524 Mbytes
Step Temp TotEng 
 7500850            0            0 
Loop time of 0.260751 on 1 procs for 1 steps with 121278 atoms

Performance: 1656.753 tau/day, 3.835 timesteps/s
179.8% CPU use with 1 MPI tasks x no OpenMP threads

MPI task timing breakdown:
Section |  min time  |  avg time  |  max time  |%varavg| %total
---------------------------------------------------------------
Pair    | 0          | 0          | 0          |   0.0 |  0.00
Neigh   | 0          | 0          | 0          |   0.0 |  0.00
Comm    | 0          | 0          | 0          |   0.0 |  0.00
Output  | 0          | 0          | 0          |   0.0 |  0.00
Modify  | 0          | 0          | 0          |   0.0 |  0.00
Other   |            | 0.2608     |            |       |100.00

Nlocal:    121278 ave 121278 max 121278 min
Histogram: 1 0 0 0 0 0 0 0 0 0
Nghost:    0 ave 0 max 0 min
Histogram: 1 0 0 0 0 0 0 0 0 0
Neighs:    1.18855e+006 ave 1.18855e+006 max 1.18855e+006 min
Histogram: 1 0 0 0 0 0 0 0 0 0

Total # of neighbors = 1188550
Ave neighs/atom = 9.80021
Neighbor list builds = 0
Dangerous builds = 0
rerun LammpsDump/fracture.7501000.dump first 7501000 last 7501010 dump x y z
WARNING: No fixes defined, atoms won't move (../verlet.cpp:55)
Memory usage per processor = 21.2524 Mbytes
Step Temp TotEng 
 7501000            0            0 
Loop time of 0.262262 on 1 procs for 1 steps with 121278 atoms

Performance: 1647.209 tau/day, 3.813 timesteps/s
190.6% CPU use with 1 MPI tasks x no OpenMP threads

MPI task timing breakdown:
Section |  min time  |  avg time  |  max time  |%varavg| %total
---------------------------------------------------------------
Pair    | 0          | 0          | 0          |   0.0 |  0.00
Neigh   | 0          | 0          | 0          |   0.0 |  0.00
Comm    | 0          | 0          | 0          |   0.0 |  0.00
Output  | 0          | 0          | 0          |   0.0 |  0.00
Modify  | 0          | 0          | 0          |   0.0 |  0.00
Other   |            | 0.2623     |            |       |100.00

Nlocal:    121278 ave 121278 max 121278 min
Histogram: 1 0 0 0 0 0 0 0 0 0
Nghost:    0 ave 0 max 0 min
Histogram: 1 0 0 0 0 0 0 0 0 0
Neighs:    1.19068e+006 ave 1.19068e+006 max 1.19068e+006 min
Histogram: 1 0 0 0 0 0 0 0 0 0

Total # of neighbors = 1190677
Ave neighs/atom = 9.81775
Neighbor list builds = 0
Dangerous builds = 0
rerun LammpsDump/fracture.7501150.dump first 7501150 last 7501160 dump x y z
WARNING: No fixes defined, atoms won't move (../verlet.cpp:55)
Memory usage per processor = 21.2524 Mbytes
Step Temp TotEng 
 7501150            0            0 
Loop time of 0.266265 on 1 procs for 1 steps with 121278 atoms

Performance: 1622.444 tau/day, 3.756 timesteps/s
176.0% CPU use with 1 MPI tasks x no OpenMP threads

MPI task timing breakdown:
Section |  min time  |  avg time  |  max time  |%varavg| %total
---------------------------------------------------------------
Pair    | 0          | 0          | 0          |   0.0 |  0.00
Neigh   | 0          | 0          | 0          |   0.0 |  0.00
Comm    | 0          | 0          | 0          |   0.0 |  0.00
Output  | 0          | 0          | 0          |   0.0 |  0.00
Modify  | 0          | 0          | 0          |   0.0 |  0.00
Other   |            | 0.2663     |            |       |100.00

Nlocal:    121278 ave 121278 max 121278 min
Histogram: 1 0 0 0 0 0 0 0 0 0
Nghost:    0 ave 0 max 0 min
Histogram: 1 0 0 0 0 0 0 0 0 0
Neighs:    1.19255e+006 ave 1.19255e+006 max 1.19255e+006 min
Histogram: 1 0 0 0 0 0 0 0 0 0

Total # of neighbors = 1192547
Ave neighs/atom = 9.83317
Neighbor list builds = 0
Dangerous builds = 0
rerun LammpsDump/fracture.7501300.dump first 7501300 last 7501310 dump x y z
WARNING: No fixes defined, atoms won't move (../verlet.cpp:55)
Memory usage per processor = 21.2524 Mbytes
Step Temp TotEng 
 7501300            0            0 
Loop time of 0.259761 on 1 procs for 1 steps with 121278 atoms

Performance: 1663.067 tau/day, 3.850 timesteps/s
150.4% CPU use with 1 MPI tasks x no OpenMP threads

MPI task timing breakdown:
Section |  min time  |  avg time  |  max time  |%varavg| %total
---------------------------------------------------------------
Pair    | 0          | 0          | 0          |   0.0 |  0.00
Neigh   | 0          | 0          | 0          |   0.0 |  0.00
Comm    | 0          | 0          | 0          |   0.0 |  0.00
Output  | 0          | 0          | 0          |   0.0 |  0.00
Modify  | 0          | 0          | 0          |   0.0 |  0.00
Other   |            | 0.2598     |            |       |100.00

Nlocal:    121278 ave 121278 max 121278 min
Histogram: 1 0 0 0 0 0 0 0 0 0
Nghost:    0 ave 0 max 0 min
Histogram: 1 0 0 0 0 0 0 0 0 0
Neighs:    1.19402e+006 ave 1.19402e+006 max 1.19402e+006 min
Histogram: 1 0 0 0 0 0 0 0 0 0

Total # of neighbors = 1194024
Ave neighs/atom = 9.84535
Neighbor list builds = 0
Dangerous builds = 0
Total wall time: 0:00:30
