LAMMPS (17 Nov 2016)
#package omp 40
#suffix omp
variable	xx equal 10
variable	yy equal 10
variable	zz equal 10
units		lj
atom_style	atomic
lattice		fcc 0.8442
Lattice spacing in x,y,z = 1.6796 1.6796 1.6796
region		box block 0 ${xx} 0 ${yy} 0 ${zz}
region		box block 0 10 0 ${yy} 0 ${zz}
region		box block 0 10 0 10 0 ${zz}
region		box block 0 10 0 10 0 10
create_box	1 box
Created orthogonal box = (0 0 0) to (16.796 16.796 16.796)
  1 by 1 by 1 MPI processor grid
create_atoms	1 box
Created 4000 atoms
mass		1 1.0
velocity	all create 5 87287 loop geom
pair_style	lj/cut 2.5
pair_coeff	1 1 1.0 1.0 2.5
neighbor	0.3 bin
neigh_modify	delay 0 every 20 check no
fix		1 all nve
run 0
Neighbor list info ...
  1 neighbor list requests
  update every 20 steps, delay 0 steps, check no
  max neighbors/atom: 2000, page size: 100000
  master list distance cutoff = 2.8
  ghost atom cutoff = 2.8
  binsize = 1.4 -> bins = 12 12 12
Memory usage per processor = 2.19271 Mbytes
Step Temp E_pair E_mol TotEng Press 
       0            5   -6.7733681            0   0.72475695   -2.0153725 
Loop time of 0 on 1 procs for 0 steps with 4000 atoms

0.0% CPU use with 1 MPI tasks x no OpenMP threads

MPI task timing breakdown:
Section |  min time  |  avg time  |  max time  |%varavg| %total
---------------------------------------------------------------
Pair    | 0          | 0          | 0          |   0.0 |  0.00
Neigh   | 0          | 0          | 0          |   0.0 |  0.00
Comm    | 0          | 0          | 0          |   0.0 |  0.00
Output  | 0          | 0          | 0          |   0.0 |  0.00
Modify  | 0          | 0          | 0          |   0.0 |  0.00
Other   |            | 0          |            |       |  0.00

Nlocal:    4000 ave 4000 max 4000 min
Histogram: 1 0 0 0 0 0 0 0 0 0
Nghost:    5841 ave 5841 max 5841 min
Histogram: 1 0 0 0 0 0 0 0 0 0
Neighs:    156000 ave 156000 max 156000 min
Histogram: 1 0 0 0 0 0 0 0 0 0

Total # of neighbors = 156000
Ave neighs/atom = 39
Neighbor list builds = 0
Dangerous builds not checked
run 1 pre no post no
Step Temp E_pair E_mol TotEng Press 
       0            5   -6.7733681            0   0.72475695   -2.0153725 
       1    4.9919454   -6.7614992            0   0.72454685   -1.9415802 
Loop time of 0.0149598 on 1 procs for 1 steps with 4000 atoms

417.8% CPU use with 1 MPI tasks x no OpenMP threads
run 1 pre no post no
Step Temp E_pair E_mol TotEng Press 
       1    4.9919454   -6.7614992            0   0.72454685   -1.9415802 
       2    4.9660793   -6.7233666            0   0.72388999    -1.712276 
Loop time of 0.0159571 on 1 procs for 1 steps with 4000 atoms

293.8% CPU use with 1 MPI tasks x no OpenMP threads
run 1 pre no post no
Step Temp E_pair E_mol TotEng Press 
       2    4.9660793   -6.7233666            0   0.72388999    -1.712276 
       3    4.9170815   -6.6507655            0   0.72301288   -1.3024806 
Loop time of 0.015929 on 1 procs for 1 steps with 4000 atoms

98.1% CPU use with 1 MPI tasks x no OpenMP threads
run 1 pre no post no
Step Temp E_pair E_mol TotEng Press 
       3    4.9170815   -6.6507655            0   0.72301288   -1.3024806 
       4    4.8354393   -6.5283587            0   0.72298696  -0.66711656 
Loop time of 0.0149891 on 1 procs for 1 steps with 4000 atoms

208.5% CPU use with 1 MPI tasks x no OpenMP threads
run 1 pre no post no
Step Temp E_pair E_mol TotEng Press 
       4    4.8354393   -6.5283587            0   0.72298696  -0.66711656 
       5    4.7068614   -6.3377088            0   0.72081819   0.25222168 
Loop time of 0.0149601 on 1 procs for 1 steps with 4000 atoms

313.3% CPU use with 1 MPI tasks x no OpenMP threads
run 1 pre no post no
Step Temp E_pair E_mol TotEng Press 
       5    4.7068614   -6.3377088            0   0.72081819   0.25222168 
       6    4.5129923   -6.0514483            0   0.71634776    1.5334879 
Loop time of 0.014961 on 1 procs for 1 steps with 4000 atoms

104.4% CPU use with 1 MPI tasks x no OpenMP threads
run 1 pre no post no
Step Temp E_pair E_mol TotEng Press 
       6    4.5129923   -6.0514483            0   0.71634776    1.5334879 
       7    4.2371229   -5.6409478            0   0.71314761    3.2471759 
Loop time of 0.0159578 on 1 procs for 1 steps with 4000 atoms

97.9% CPU use with 1 MPI tasks x no OpenMP threads
run 1 pre no post no
Step Temp E_pair E_mol TotEng Press 
       7    4.2371229   -5.6409478            0   0.71314761    3.2471759 
       8    3.8801273   -5.1056198            0   0.71311612    5.3721196 
Loop time of 0.0159559 on 1 procs for 1 steps with 4000 atoms

97.9% CPU use with 1 MPI tasks x no OpenMP threads
run 1 pre no post no
Step Temp E_pair E_mol TotEng Press 
       8    3.8801273   -5.1056198            0   0.71311612    5.3721196 
       9     3.482133   -4.5033553            0   0.71853837    7.6956733 
Loop time of 0.0149601 on 1 procs for 1 steps with 4000 atoms

208.9% CPU use with 1 MPI tasks x no OpenMP threads
run 1 pre no post no
Step Temp E_pair E_mol TotEng Press 
       9     3.482133   -4.5033553            0   0.71853837    7.6956733 
      10    3.1212801   -3.9565356            0   0.72421403    9.8062588 
Loop time of 0.0159571 on 1 procs for 1 steps with 4000 atoms

97.9% CPU use with 1 MPI tasks x no OpenMP threads
run 1 pre no post no
Step Temp E_pair E_mol TotEng Press 
      10    3.1212801   -3.9565356            0   0.72421403    9.8062588 
      11    2.8701401   -3.5793123            0   0.72482159    11.323824 
Loop time of 0.015959 on 1 procs for 1 steps with 4000 atoms

97.9% CPU use with 1 MPI tasks x no OpenMP threads
run 1 pre no post no
Step Temp E_pair E_mol TotEng Press 
      11    2.8701401   -3.5793123            0   0.72482159    11.323824 
      12    2.7517479   -3.4053086            0    0.7212813    12.129557 
Loop time of 0.0169539 on 1 procs for 1 steps with 4000 atoms

276.5% CPU use with 1 MPI tasks x no OpenMP threads
run 1 pre no post no
Step Temp E_pair E_mol TotEng Press 
      12    2.7517479   -3.4053086            0    0.7212813    12.129557 
      13    2.7402007   -3.3926424            0   0.71663113    12.353811 
Loop time of 0.0159581 on 1 procs for 1 steps with 4000 atoms

97.9% CPU use with 1 MPI tasks x no OpenMP threads
run 1 pre no post no
Step Temp E_pair E_mol TotEng Press 
      13    2.7402007   -3.3926424            0   0.71663113    12.353811 
      14    2.7900453   -3.4707194            0   0.71330235    12.226791 
Loop time of 0.0159571 on 1 procs for 1 steps with 4000 atoms

97.9% CPU use with 1 MPI tasks x no OpenMP threads
run 1 pre no post no
Step Temp E_pair E_mol TotEng Press 
      14    2.7900453   -3.4707194            0   0.71330235    12.226791 
      15    2.8611046   -3.5791851            0   0.71139895    11.953727 
Loop time of 0.0159578 on 1 procs for 1 steps with 4000 atoms

97.9% CPU use with 1 MPI tasks x no OpenMP threads
run 1 pre no post no
Step Temp E_pair E_mol TotEng Press 
      15    2.8611046   -3.5791851            0   0.71139895    11.953727 
      16    2.9274607   -3.6792034            0   0.71088985    11.672577 
Loop time of 0.0149601 on 1 procs for 1 steps with 4000 atoms

208.9% CPU use with 1 MPI tasks x no OpenMP threads
run 1 pre no post no
Step Temp E_pair E_mol TotEng Press 
      16    2.9274607   -3.6792034            0   0.71088985    11.672577 
      17    2.9760971    -3.751549            0    0.7114806    11.457876 
Loop time of 0.0149601 on 1 procs for 1 steps with 4000 atoms

104.4% CPU use with 1 MPI tasks x no OpenMP threads
run 1 pre no post no
Step Temp E_pair E_mol TotEng Press 
      17    2.9760971    -3.751549            0    0.7114806    11.457876 
      18    3.0033019   -3.7914033            0   0.71242327    11.336078 
Loop time of 0.0159571 on 1 procs for 1 steps with 4000 atoms

195.8% CPU use with 1 MPI tasks x no OpenMP threads
run 1 pre no post no
Step Temp E_pair E_mol TotEng Press 
      18    3.0033019   -3.7914033            0   0.71242327    11.336078 
      19    3.0117827   -3.8029041            0   0.71364046    11.300652 
Loop time of 0.0159569 on 1 procs for 1 steps with 4000 atoms

195.8% CPU use with 1 MPI tasks x no OpenMP threads
run 1 pre no post no
Step Temp E_pair E_mol TotEng Press 
      19    3.0117827   -3.8029041            0   0.71364046    11.300652 
      20    3.0072879   -3.7982222            0   0.71158183    11.321669 
Loop time of 0.025897 on 1 procs for 1 steps with 4000 atoms

120.7% CPU use with 1 MPI tasks x no OpenMP threads
run 1 pre no post no
Step Temp E_pair E_mol TotEng Press 
      20    3.0072879   -3.7982222            0   0.71158183    11.321669 
      21    2.9948429    -3.779475            0   0.71166633    11.385712 
Loop time of 0.0159578 on 1 procs for 1 steps with 4000 atoms

97.9% CPU use with 1 MPI tasks x no OpenMP threads
run 1 pre no post no
Step Temp E_pair E_mol TotEng Press 
      21    2.9948429    -3.779475            0   0.71166633    11.385712 
      22    2.9780947   -3.7536968            0   0.71232839    11.472964 
Loop time of 0.0169549 on 1 procs for 1 steps with 4000 atoms

276.5% CPU use with 1 MPI tasks x no OpenMP threads
run 1 pre no post no
Step Temp E_pair E_mol TotEng Press 
      22    2.9780947   -3.7536968            0   0.71232839    11.472964 
      23    2.9609029   -3.7274156            0   0.71282842    11.562836 
Loop time of 0.0159559 on 1 procs for 1 steps with 4000 atoms

97.9% CPU use with 1 MPI tasks x no OpenMP threads
run 1 pre no post no
Step Temp E_pair E_mol TotEng Press 
      23    2.9609029   -3.7274156            0   0.71282842    11.562836 
      24    2.9465287   -3.7055717            0   0.71311635    11.638305 
Loop time of 0.0159581 on 1 procs for 1 steps with 4000 atoms

195.8% CPU use with 1 MPI tasks x no OpenMP threads
run 1 pre no post no
Step Temp E_pair E_mol TotEng Press 
      24    2.9465287   -3.7055717            0   0.71311635    11.638305 
      25    2.9360775   -3.6897531            0   0.71326212     11.69337 
Loop time of 0.015959 on 1 procs for 1 steps with 4000 atoms

97.9% CPU use with 1 MPI tasks x no OpenMP threads
run 1 pre no post no
Step Temp E_pair E_mol TotEng Press 
      25    2.9360775   -3.6897531            0   0.71326212     11.69337 
      26    2.9295645   -3.6798313            0   0.71341688    11.727489 
Loop time of 0.0159569 on 1 procs for 1 steps with 4000 atoms

97.9% CPU use with 1 MPI tasks x no OpenMP threads
run 1 pre no post no
Step Temp E_pair E_mol TotEng Press 
      26    2.9295645   -3.6798313            0   0.71341688    11.727489 
      27    2.9268979   -3.6755999            0   0.71364937    11.740674 
Loop time of 0.0159571 on 1 procs for 1 steps with 4000 atoms

97.9% CPU use with 1 MPI tasks x no OpenMP threads
run 1 pre no post no
Step Temp E_pair E_mol TotEng Press 
      27    2.9268979   -3.6755999            0   0.71364937    11.740674 
      28    2.9273577   -3.6762954            0   0.71364333    11.735728 
Loop time of 0.0159562 on 1 procs for 1 steps with 4000 atoms

195.8% CPU use with 1 MPI tasks x no OpenMP threads
run 1 pre no post no
Step Temp E_pair E_mol TotEng Press 
      28    2.9273577   -3.6762954            0   0.71364333    11.735728 
      29    2.9291314   -3.6787253            0   0.71387329     11.72234 
Loop time of 0.0159581 on 1 procs for 1 steps with 4000 atoms

97.9% CPU use with 1 MPI tasks x no OpenMP threads
run 1 pre no post no
Step Temp E_pair E_mol TotEng Press 
      29    2.9291314   -3.6787253            0   0.71387329     11.72234 
      30    2.9300489   -3.6798931            0   0.71408149    11.711203 
Loop time of 0.0149589 on 1 procs for 1 steps with 4000 atoms

208.9% CPU use with 1 MPI tasks x no OpenMP threads
run 1 pre no post no
Step Temp E_pair E_mol TotEng Press 
      30    2.9300489   -3.6798931            0   0.71408149    11.711203 
      31    2.9297869   -3.6789821            0   0.71459963      11.7051 
Loop time of 0.0159571 on 1 procs for 1 steps with 4000 atoms

97.9% CPU use with 1 MPI tasks x no OpenMP threads
run 1 pre no post no
Step Temp E_pair E_mol TotEng Press 
      31    2.9297869   -3.6789821            0   0.71459963      11.7051 
      32    2.9303791   -3.6792472            0   0.71522246    11.694219 
Loop time of 0.015929 on 1 procs for 1 steps with 4000 atoms

98.1% CPU use with 1 MPI tasks x no OpenMP threads
run 1 pre no post no
Step Temp E_pair E_mol TotEng Press 
      32    2.9303791   -3.6792472            0   0.71522246    11.694219 
      33    2.9339151    -3.683903            0   0.71586939    11.668783 
Loop time of 0.0159571 on 1 procs for 1 steps with 4000 atoms

97.9% CPU use with 1 MPI tasks x no OpenMP threads
run 1 pre no post no
Step Temp E_pair E_mol TotEng Press 
      33    2.9339151    -3.683903            0   0.71586939    11.668783 
      34    2.9411665   -3.6943563            0   0.71629059    11.625177 
Loop time of 0.0154648 on 1 procs for 1 steps with 4000 atoms

101.0% CPU use with 1 MPI tasks x no OpenMP threads
run 1 pre no post no
Step Temp E_pair E_mol TotEng Press 
      34    2.9411665   -3.6943563            0   0.71629059    11.625177 
      35    2.9514905    -3.709576            0    0.7165529    11.566563 
Loop time of 0.0159571 on 1 procs for 1 steps with 4000 atoms

195.8% CPU use with 1 MPI tasks x no OpenMP threads
run 1 pre no post no
Step Temp E_pair E_mol TotEng Press 
      35    2.9514905    -3.709576            0    0.7165529    11.566563 
      36    2.9620477   -3.7251618            0   0.71679895    11.507088 
Loop time of 0.0159559 on 1 procs for 1 steps with 4000 atoms

97.9% CPU use with 1 MPI tasks x no OpenMP threads
run 1 pre no post no
Step Temp E_pair E_mol TotEng Press 
      36    2.9620477   -3.7251618            0   0.71679895    11.507088 
      37     2.969517   -3.7358429            0   0.71731904    11.463644 
Loop time of 0.0149601 on 1 procs for 1 steps with 4000 atoms

208.9% CPU use with 1 MPI tasks x no OpenMP threads
run 1 pre no post no
Step Temp E_pair E_mol TotEng Press 
      37     2.969517   -3.7358429            0   0.71731904    11.463644 
      38     2.973393   -3.7407094            0    0.7182651    11.439025 
Loop time of 0.015955 on 1 procs for 1 steps with 4000 atoms

293.8% CPU use with 1 MPI tasks x no OpenMP threads
run 1 pre no post no
Step Temp E_pair E_mol TotEng Press 
      38     2.973393   -3.7407094            0    0.7182651    11.439025 
      39    2.9761417   -3.7439442            0   0.71915219    11.420375 
Loop time of 0.0159571 on 1 procs for 1 steps with 4000 atoms

97.9% CPU use with 1 MPI tasks x no OpenMP threads
run 1 pre no post no
Step Temp E_pair E_mol TotEng Press 
      39    2.9761417   -3.7439442            0   0.71915219    11.420375 
      40    2.9803153    -3.753821            0   0.71553436    11.388071 
Loop time of 0.0259311 on 1 procs for 1 steps with 4000 atoms

60.3% CPU use with 1 MPI tasks x no OpenMP threads
run 1 pre no post no
Step Temp E_pair E_mol TotEng Press 
      40    2.9803153    -3.753821            0   0.71553436    11.388071 
      41    2.9864721   -3.7630683            0   0.71551986    11.353243 
Loop time of 0.0159571 on 1 procs for 1 steps with 4000 atoms

293.8% CPU use with 1 MPI tasks x no OpenMP threads
run 1 pre no post no
Step Temp E_pair E_mol TotEng Press 
      41    2.9864721   -3.7630683            0   0.71551986    11.353243 
      42    2.9939356   -3.7743797            0     0.715401    11.312975 
Loop time of 0.0159571 on 1 procs for 1 steps with 4000 atoms

97.9% CPU use with 1 MPI tasks x no OpenMP threads
run 1 pre no post no
Step Temp E_pair E_mol TotEng Press 
      42    2.9939356   -3.7743797            0     0.715401    11.312975 
      43    3.0019235   -3.7863572            0    0.7154024    11.271472 
Loop time of 0.0159581 on 1 procs for 1 steps with 4000 atoms

97.9% CPU use with 1 MPI tasks x no OpenMP threads
run 1 pre no post no
Step Temp E_pair E_mol TotEng Press 
      43    3.0019235   -3.7863572            0    0.7154024    11.271472 
      44    3.0086671   -3.7967557            0   0.71511661    11.236525 
Loop time of 0.0159581 on 1 procs for 1 steps with 4000 atoms

97.9% CPU use with 1 MPI tasks x no OpenMP threads
run 1 pre no post no
Step Temp E_pair E_mol TotEng Press 
      44    3.0086671   -3.7967557            0   0.71511661    11.236525 
      45    3.0108559   -3.8003902            0    0.7147645    11.224565 
Loop time of 0.0159571 on 1 procs for 1 steps with 4000 atoms

195.8% CPU use with 1 MPI tasks x no OpenMP threads
run 1 pre no post no
Step Temp E_pair E_mol TotEng Press 
      45    3.0108559   -3.8003902            0    0.7147645    11.224565 
      46     3.005962   -3.7929364            0    0.7148793    11.248715 
Loop time of 0.0159562 on 1 procs for 1 steps with 4000 atoms

97.9% CPU use with 1 MPI tasks x no OpenMP threads
run 1 pre no post no
Step Temp E_pair E_mol TotEng Press 
      46     3.005962   -3.7929364            0    0.7148793    11.248715 
      47    2.9954937   -3.7763637            0   0.71575354    11.302194 
Loop time of 0.014987 on 1 procs for 1 steps with 4000 atoms

104.3% CPU use with 1 MPI tasks x no OpenMP threads
run 1 pre no post no
Step Temp E_pair E_mol TotEng Press 
      47    2.9954937   -3.7763637            0   0.71575354    11.302194 
      48    2.9851462   -3.7602918            0   0.71630807    11.355213 
Loop time of 0.015929 on 1 procs for 1 steps with 4000 atoms

294.3% CPU use with 1 MPI tasks x no OpenMP threads
run 1 pre no post no
Step Temp E_pair E_mol TotEng Press 
      48    2.9851462   -3.7602918            0   0.71630807    11.355213 
      49    2.9797611   -3.7522302            0   0.71629402    11.383326 
Loop time of 0.0159571 on 1 procs for 1 steps with 4000 atoms

97.9% CPU use with 1 MPI tasks x no OpenMP threads
run 1 pre no post no
Step Temp E_pair E_mol TotEng Press 
      49    2.9797611   -3.7522302            0   0.71629402    11.383326 
      50    2.9792776   -3.7515687            0   0.71623052    11.387767 
Loop time of 0.0149601 on 1 procs for 1 steps with 4000 atoms

417.8% CPU use with 1 MPI tasks x no OpenMP threads
run 1 pre no post no
Step Temp E_pair E_mol TotEng Press 
      50    2.9792776   -3.7515687            0   0.71623052    11.387767 
      51    2.9815548   -3.7549466            0    0.7162675     11.37922 
Loop time of 0.015955 on 1 procs for 1 steps with 4000 atoms

97.9% CPU use with 1 MPI tasks x no OpenMP threads
run 1 pre no post no
Step Temp E_pair E_mol TotEng Press 
      51    2.9815548   -3.7549466            0    0.7162675     11.37922 
      52    2.9854176   -3.7605576            0   0.71644934    11.362974 
Loop time of 0.0159581 on 1 procs for 1 steps with 4000 atoms

195.8% CPU use with 1 MPI tasks x no OpenMP threads
run 1 pre no post no
Step Temp E_pair E_mol TotEng Press 
      52    2.9854176   -3.7605576            0   0.71644934    11.362974 
      53    2.9892005   -3.7661827            0   0.71649711    11.346705 
Loop time of 0.0159571 on 1 procs for 1 steps with 4000 atoms

293.8% CPU use with 1 MPI tasks x no OpenMP threads
run 1 pre no post no
Step Temp E_pair E_mol TotEng Press 
      53    2.9892005   -3.7661827            0   0.71649711    11.346705 
      54    2.9913586   -3.7689082            0   0.71700802    11.339371 
Loop time of 0.0149579 on 1 procs for 1 steps with 4000 atoms

104.5% CPU use with 1 MPI tasks x no OpenMP threads
run 1 pre no post no
Step Temp E_pair E_mol TotEng Press 
      54    2.9913586   -3.7689082            0   0.71700802    11.339371 
      55    2.9928866   -3.7705253            0   0.71768222    11.335352 
Loop time of 0.0159569 on 1 procs for 1 steps with 4000 atoms

97.9% CPU use with 1 MPI tasks x no OpenMP threads
run 1 pre no post no
Step Temp E_pair E_mol TotEng Press 
      55    2.9928866   -3.7705253            0   0.71768222    11.335352 
      56    2.9949413     -3.77326            0   0.71802882    11.328004 
Loop time of 0.0149601 on 1 procs for 1 steps with 4000 atoms

104.4% CPU use with 1 MPI tasks x no OpenMP threads
run 1 pre no post no
Step Temp E_pair E_mol TotEng Press 
      56    2.9949413     -3.77326            0   0.71802882    11.328004 
      57     2.996075   -3.7746884            0   0.71830055    11.324865 
Loop time of 0.0149601 on 1 procs for 1 steps with 4000 atoms

208.9% CPU use with 1 MPI tasks x no OpenMP threads
run 1 pre no post no
Step Temp E_pair E_mol TotEng Press 
      57     2.996075   -3.7746884            0   0.71830055    11.324865 
      58    2.9936931   -3.7706222            0   0.71879484    11.338979 
Loop time of 0.0149589 on 1 procs for 1 steps with 4000 atoms

104.5% CPU use with 1 MPI tasks x no OpenMP threads
run 1 pre no post no
Step Temp E_pair E_mol TotEng Press 
      58    2.9936931   -3.7706222            0   0.71879484    11.338979 
      59    2.9873457   -3.7600065            0   0.71989184     11.37344 
Loop time of 0.0159578 on 1 procs for 1 steps with 4000 atoms

97.9% CPU use with 1 MPI tasks x no OpenMP threads
run 1 pre no post no
Step Temp E_pair E_mol TotEng Press 
      59    2.9873457   -3.7600065            0   0.71989184     11.37344 
      60    2.9804262   -3.7532485            0    0.7162732    11.403015 
Loop time of 0.0264361 on 1 procs for 1 steps with 4000 atoms

236.4% CPU use with 1 MPI tasks x no OpenMP threads
run 1 pre no post no
Step Temp E_pair E_mol TotEng Press 
      60    2.9804262   -3.7532485            0    0.7162732    11.403015 
      61    2.9763038   -3.7470861            0   0.71625354    11.425059 
Loop time of 0.0159302 on 1 procs for 1 steps with 4000 atoms

294.3% CPU use with 1 MPI tasks x no OpenMP threads
run 1 pre no post no
Step Temp E_pair E_mol TotEng Press 
      61    2.9763038   -3.7470861            0   0.71625354    11.425059 
      62    2.9742638   -3.7446542            0   0.71562616    11.436023 
Loop time of 0.0149601 on 1 procs for 1 steps with 4000 atoms

0.0% CPU use with 1 MPI tasks x no OpenMP threads
run 1 pre no post no
Step Temp E_pair E_mol TotEng Press 
      62    2.9742638   -3.7446542            0   0.71562616    11.436023 
      63    2.9717676   -3.7410942            0   0.71544281    11.449818 
Loop time of 0.0169549 on 1 procs for 1 steps with 4000 atoms

276.5% CPU use with 1 MPI tasks x no OpenMP threads
run 1 pre no post no
Step Temp E_pair E_mol TotEng Press 
      63    2.9717676   -3.7410942            0   0.71544281    11.449818 
      64     2.967626   -3.7348545            0   0.71547169    11.471278 
Loop time of 0.0159571 on 1 procs for 1 steps with 4000 atoms

97.9% CPU use with 1 MPI tasks x no OpenMP threads
run 1 pre no post no
Step Temp E_pair E_mol TotEng Press 
      64     2.967626   -3.7348545            0   0.71547169    11.471278 
      65    2.9626154   -3.7274019            0    0.7154102    11.496082 
Loop time of 0.0149591 on 1 procs for 1 steps with 4000 atoms

104.5% CPU use with 1 MPI tasks x no OpenMP threads
run 1 pre no post no
Step Temp E_pair E_mol TotEng Press 
      65    2.9626154   -3.7274019            0    0.7154102    11.496082 
      66    2.9595508   -3.7223154            0   0.71590098    11.511637 
Loop time of 0.0149601 on 1 procs for 1 steps with 4000 atoms

104.4% CPU use with 1 MPI tasks x no OpenMP threads
run 1 pre no post no
Step Temp E_pair E_mol TotEng Press 
      66    2.9595508   -3.7223154            0   0.71590098    11.511637 
      67    2.9615379   -3.7252065            0   0.71598981    11.501187 
Loop time of 0.015959 on 1 procs for 1 steps with 4000 atoms

195.8% CPU use with 1 MPI tasks x no OpenMP threads
run 1 pre no post no
Step Temp E_pair E_mol TotEng Press 
      67    2.9615379   -3.7252065            0   0.71598981    11.501187 
      68    2.9691003   -3.7365822            0   0.71595493    11.462683 
Loop time of 0.015929 on 1 procs for 1 steps with 4000 atoms

98.1% CPU use with 1 MPI tasks x no OpenMP threads
run 1 pre no post no
Step Temp E_pair E_mol TotEng Press 
      68    2.9691003   -3.7365822            0   0.71595493    11.462683 
      69    2.9796739   -3.7527172            0   0.71567628    11.408252 
Loop time of 0.0149601 on 1 procs for 1 steps with 4000 atoms

104.4% CPU use with 1 MPI tasks x no OpenMP threads
run 1 pre no post no
Step Temp E_pair E_mol TotEng Press 
      69    2.9796739   -3.7527172            0   0.71567628    11.408252 
      70    2.9895917   -3.7677212            0   0.71554518    11.356231 
Loop time of 0.0159571 on 1 procs for 1 steps with 4000 atoms

293.8% CPU use with 1 MPI tasks x no OpenMP threads
run 1 pre no post no
Step Temp E_pair E_mol TotEng Press 
      70    2.9895917   -3.7677212            0   0.71554518    11.356231 
      71    2.9966381   -3.7783312            0   0.71550219    11.317225 
Loop time of 0.0149591 on 1 procs for 1 steps with 4000 atoms

104.5% CPU use with 1 MPI tasks x no OpenMP threads
run 1 pre no post no
Step Temp E_pair E_mol TotEng Press 
      71    2.9966381   -3.7783312            0   0.71550219    11.317225 
      72    3.0009412   -3.7845487            0   0.71573777    11.291059 
Loop time of 0.015985 on 1 procs for 1 steps with 4000 atoms

195.5% CPU use with 1 MPI tasks x no OpenMP threads
run 1 pre no post no
Step Temp E_pair E_mol TotEng Press 
      72    3.0009412   -3.7845487            0   0.71573777    11.291059 
      73    3.0039184   -3.7886087            0   0.71614242    11.271161 
Loop time of 0.0149601 on 1 procs for 1 steps with 4000 atoms

104.4% CPU use with 1 MPI tasks x no OpenMP threads
run 1 pre no post no
Step Temp E_pair E_mol TotEng Press 
      73    3.0039184   -3.7886087            0   0.71614242    11.271161 
      74    3.0068118   -3.7926857            0   0.71640438    11.251498 
Loop time of 0.015985 on 1 procs for 1 steps with 4000 atoms

195.5% CPU use with 1 MPI tasks x no OpenMP threads
run 1 pre no post no
Step Temp E_pair E_mol TotEng Press 
      74    3.0068118   -3.7926857            0   0.71640438    11.251498 
      75    3.0096228   -3.7964255            0   0.71688006    11.233287 
Loop time of 0.0159581 on 1 procs for 1 steps with 4000 atoms

293.7% CPU use with 1 MPI tasks x no OpenMP threads
run 1 pre no post no
Step Temp E_pair E_mol TotEng Press 
      75    3.0096228   -3.7964255            0   0.71688006    11.233287 
      76    3.0111811   -3.7983285            0   0.71731394    11.222038 
Loop time of 0.0149589 on 1 procs for 1 steps with 4000 atoms

104.5% CPU use with 1 MPI tasks x no OpenMP threads
run 1 pre no post no
Step Temp E_pair E_mol TotEng Press 
      76    3.0111811   -3.7983285            0   0.71731394    11.222038 
      77    3.0096892   -3.7959023            0   0.71750284     11.22617 
Loop time of 0.0149601 on 1 procs for 1 steps with 4000 atoms

313.3% CPU use with 1 MPI tasks x no OpenMP threads
run 1 pre no post no
Step Temp E_pair E_mol TotEng Press 
      77    3.0096892   -3.7959023            0   0.71750284     11.22617 
      78    3.0039622    -3.786879            0    0.7179378    11.252226 
Loop time of 0.0159569 on 1 procs for 1 steps with 4000 atoms

97.9% CPU use with 1 MPI tasks x no OpenMP threads
run 1 pre no post no
Step Temp E_pair E_mol TotEng Press 
      78    3.0039622    -3.786879            0    0.7179378    11.252226 
      79    2.9947899   -3.7725552            0   0.71850655    11.296069 
Loop time of 0.015955 on 1 procs for 1 steps with 4000 atoms

293.8% CPU use with 1 MPI tasks x no OpenMP threads
run 1 pre no post no
Step Temp E_pair E_mol TotEng Press 
      79    2.9947899   -3.7725552            0   0.71850655    11.296069 
      80    2.9849665   -3.7616018            0   0.71472864    11.336819 
Loop time of 0.026927 on 1 procs for 1 steps with 4000 atoms

174.1% CPU use with 1 MPI tasks x no OpenMP threads
run 1 pre no post no
Step Temp E_pair E_mol TotEng Press 
      80    2.9849665   -3.7616018            0   0.71472864    11.336819 
      81    2.9777535   -3.7506753            0   0.71483825    11.372448 
Loop time of 0.0149601 on 1 procs for 1 steps with 4000 atoms

104.4% CPU use with 1 MPI tasks x no OpenMP threads
run 1 pre no post no
Step Temp E_pair E_mol TotEng Press 
      81    2.9777535   -3.7506753            0   0.71483825    11.372448 
      82    2.9748341   -3.7462977            0   0.71483785    11.387908 
Loop time of 0.0159578 on 1 procs for 1 steps with 4000 atoms

195.8% CPU use with 1 MPI tasks x no OpenMP threads
run 1 pre no post no
Step Temp E_pair E_mol TotEng Press 
      82    2.9748341   -3.7462977            0   0.71483785    11.387908 
      83    2.9756427   -3.7478872            0   0.71446102    11.385581 
Loop time of 0.0159569 on 1 procs for 1 steps with 4000 atoms

97.9% CPU use with 1 MPI tasks x no OpenMP threads
run 1 pre no post no
Step Temp E_pair E_mol TotEng Press 
      83    2.9756427   -3.7478872            0   0.71446102    11.385581 
      84    2.9778533   -3.7515475            0   0.71411574    11.377196 
Loop time of 0.0159571 on 1 procs for 1 steps with 4000 atoms

97.9% CPU use with 1 MPI tasks x no OpenMP threads
run 1 pre no post no
Step Temp E_pair E_mol TotEng Press 
      84    2.9778533   -3.7515475            0   0.71411574    11.377196 
      85    2.9781597    -3.752126            0   0.71399677    11.379074 
Loop time of 0.0159581 on 1 procs for 1 steps with 4000 atoms

293.7% CPU use with 1 MPI tasks x no OpenMP threads
run 1 pre no post no
Step Temp E_pair E_mol TotEng Press 
      85    2.9781597    -3.752126            0   0.71399677    11.379074 
      86    2.9741812   -3.7462269            0   0.71392965      11.4021 
Loop time of 0.015929 on 1 procs for 1 steps with 4000 atoms

98.1% CPU use with 1 MPI tasks x no OpenMP threads
run 1 pre no post no
Step Temp E_pair E_mol TotEng Press 
      86    2.9741812   -3.7462269            0   0.71392965      11.4021 
      87    2.9660174   -3.7335132            0   0.71440057    11.446142 
Loop time of 0.0149598 on 1 procs for 1 steps with 4000 atoms

313.3% CPU use with 1 MPI tasks x no OpenMP threads
run 1 pre no post no
Step Temp E_pair E_mol TotEng Press 
      87    2.9660174   -3.7335132            0   0.71440057    11.446142 
      88    2.9568744   -3.7192535            0    0.7149493      11.4944 
Loop time of 0.0149591 on 1 procs for 1 steps with 4000 atoms

104.5% CPU use with 1 MPI tasks x no OpenMP threads
run 1 pre no post no
Step Temp E_pair E_mol TotEng Press 
      88    2.9568744   -3.7192535            0    0.7149493      11.4944 
      89     2.951964     -3.71147            0   0.71536907    11.520815 
Loop time of 0.0159321 on 1 procs for 1 steps with 4000 atoms

196.1% CPU use with 1 MPI tasks x no OpenMP threads
run 1 pre no post no
Step Temp E_pair E_mol TotEng Press 
      89     2.951964     -3.71147            0   0.71536907    11.520815 
      90    2.9551528   -3.7162297            0   0.71539133    11.506108 
Loop time of 0.0149601 on 1 procs for 1 steps with 4000 atoms

104.4% CPU use with 1 MPI tasks x no OpenMP threads
run 1 pre no post no
Step Temp E_pair E_mol TotEng Press 
      90    2.9551528   -3.7162297            0   0.71539133    11.506108 
      91    2.9659608   -3.7327564            0   0.71507258    11.452988 
Loop time of 0.0159581 on 1 procs for 1 steps with 4000 atoms

97.9% CPU use with 1 MPI tasks x no OpenMP threads
run 1 pre no post no
Step Temp E_pair E_mol TotEng Press 
      91    2.9659608   -3.7327564            0   0.71507258    11.452988 
      92    2.9796469    -3.753517            0   0.71483599    11.385802 
Loop time of 0.0149579 on 1 procs for 1 steps with 4000 atoms

313.4% CPU use with 1 MPI tasks x no OpenMP threads
run 1 pre no post no
Step Temp E_pair E_mol TotEng Press 
      92    2.9796469    -3.753517            0   0.71483599    11.385802 
      93      2.99062   -3.7699296            0   0.71487892    11.332611 
Loop time of 0.0159581 on 1 procs for 1 steps with 4000 atoms

97.9% CPU use with 1 MPI tasks x no OpenMP threads
run 1 pre no post no
Step Temp E_pair E_mol TotEng Press 
      93      2.99062   -3.7699296            0   0.71487892    11.332611 
      94    2.9957498   -3.7774748            0    0.7150265    11.308836 
Loop time of 0.016953 on 1 procs for 1 steps with 4000 atoms

368.7% CPU use with 1 MPI tasks x no OpenMP threads
run 1 pre no post no
Step Temp E_pair E_mol TotEng Press 
      94    2.9957498   -3.7774748            0    0.7150265    11.308836 
      95    2.9948568   -3.7757314            0    0.7154307    11.315904 
Loop time of 0.0159559 on 1 procs for 1 steps with 4000 atoms

97.9% CPU use with 1 MPI tasks x no OpenMP threads
run 1 pre no post no
Step Temp E_pair E_mol TotEng Press 
      95    2.9948568   -3.7757314            0    0.7154307    11.315904 
      96    2.9889448    -3.766337            0   0.71595937    11.348813 
Loop time of 0.0159578 on 1 procs for 1 steps with 4000 atoms

195.8% CPU use with 1 MPI tasks x no OpenMP threads
run 1 pre no post no
Step Temp E_pair E_mol TotEng Press 
      96    2.9889448    -3.766337            0   0.71595937    11.348813 
      97    2.9791887   -3.7509561            0   0.71670976    11.402104 
Loop time of 0.0179529 on 1 procs for 1 steps with 4000 atoms

261.1% CPU use with 1 MPI tasks x no OpenMP threads
run 1 pre no post no
Step Temp E_pair E_mol TotEng Press 
      97    2.9791887   -3.7509561            0   0.71670976    11.402104 
      98    2.9676215   -3.7327978            0    0.7175216    11.465045 
Loop time of 0.0159571 on 1 procs for 1 steps with 4000 atoms

97.9% CPU use with 1 MPI tasks x no OpenMP threads
run 1 pre no post no
Step Temp E_pair E_mol TotEng Press 
      98    2.9676215   -3.7327978            0    0.7175216    11.465045 
      99    2.9565277   -3.7154217            0   0.71826119    11.525646 
Loop time of 0.0149601 on 1 procs for 1 steps with 4000 atoms

104.4% CPU use with 1 MPI tasks x no OpenMP threads
run 1 pre no post no
Step Temp E_pair E_mol TotEng Press 
      99    2.9565277   -3.7154217            0   0.71826119    11.525646 
     100    2.9479883   -3.7066313            0   0.71424572    11.565531 
Loop time of 0.0264101 on 1 procs for 1 steps with 4000 atoms

236.7% CPU use with 1 MPI tasks x no OpenMP threads
run 1 pre no post no
Step Temp E_pair E_mol TotEng Press 
     100    2.9479883   -3.7066313            0   0.71424572    11.565531 
     101    2.9440594   -3.7006827            0   0.71430246    11.589089 
Loop time of 0.0159581 on 1 procs for 1 steps with 4000 atoms

97.9% CPU use with 1 MPI tasks x no OpenMP threads
run 1 pre no post no
Step Temp E_pair E_mol TotEng Press 
     101    2.9440594   -3.7006827            0   0.71430246    11.589089 
     102    2.9463014   -3.7038084            0   0.71453885    11.581653 
Loop time of 0.0159578 on 1 procs for 1 steps with 4000 atoms

391.7% CPU use with 1 MPI tasks x no OpenMP threads
run 1 pre no post no
Step Temp E_pair E_mol TotEng Press 
     102    2.9463014   -3.7038084            0   0.71453885    11.581653 
     103    2.9542684   -3.7159463            0   0.71434841    11.544227 
Loop time of 0.0169539 on 1 procs for 1 steps with 4000 atoms

92.2% CPU use with 1 MPI tasks x no OpenMP threads
run 1 pre no post no
Step Temp E_pair E_mol TotEng Press 
     103    2.9542684   -3.7159463            0   0.71434841    11.544227 
     104    2.9646397   -3.7318971            0   0.71395077    11.493516 
Loop time of 0.015959 on 1 procs for 1 steps with 4000 atoms

195.8% CPU use with 1 MPI tasks x no OpenMP threads
run 1 pre no post no
Step Temp E_pair E_mol TotEng Press 
     104    2.9646397   -3.7318971            0   0.71395077    11.493516 
     105    2.9729799   -3.7447526            0   0.71360245    11.451763 
Loop time of 0.0179501 on 1 procs for 1 steps with 4000 atoms

87.0% CPU use with 1 MPI tasks x no OpenMP threads
run 1 pre no post no
Step Temp E_pair E_mol TotEng Press 
     105    2.9729799   -3.7447526            0   0.71360245    11.451763 
     106    2.9761886   -3.7495899            0   0.71357698    11.434839 
Loop time of 0.0169549 on 1 procs for 1 steps with 4000 atoms

184.3% CPU use with 1 MPI tasks x no OpenMP threads
run 1 pre no post no
Step Temp E_pair E_mol TotEng Press 
     106    2.9761886   -3.7495899            0   0.71357698    11.434839 
     107    2.9741767   -3.7463151            0   0.71383468     11.44367 
Loop time of 0.0159562 on 1 procs for 1 steps with 4000 atoms

97.9% CPU use with 1 MPI tasks x no OpenMP threads
run 1 pre no post no
Step Temp E_pair E_mol TotEng Press 
     107    2.9741767   -3.7463151            0   0.71383468     11.44367 
     108    2.9696761   -3.7393931            0   0.71400736    11.464401 
Loop time of 0.0149579 on 1 procs for 1 steps with 4000 atoms

104.5% CPU use with 1 MPI tasks x no OpenMP threads
run 1 pre no post no
Step Temp E_pair E_mol TotEng Press 
     108    2.9696761   -3.7393931            0   0.71400736    11.464401 
     109     2.965452   -3.7328804            0   0.71418553    11.483833 
Loop time of 0.0158281 on 1 procs for 1 steps with 4000 atoms

197.4% CPU use with 1 MPI tasks x no OpenMP threads
run 1 pre no post no
Step Temp E_pair E_mol TotEng Press 
     109     2.965452   -3.7328804            0   0.71418553    11.483833 
     110    2.9631461   -3.7295248            0    0.7140832    11.493522 
Loop time of 0.0159581 on 1 procs for 1 steps with 4000 atoms

97.9% CPU use with 1 MPI tasks x no OpenMP threads
run 1 pre no post no
Step Temp E_pair E_mol TotEng Press 
     110    2.9631461   -3.7295248            0    0.7140832    11.493522 
     111    2.9636616   -3.7305799            0    0.7138011    11.488627 
Loop time of 0.0149601 on 1 procs for 1 steps with 4000 atoms

313.3% CPU use with 1 MPI tasks x no OpenMP threads
run 1 pre no post no
Step Temp E_pair E_mol TotEng Press 
     111    2.9636616   -3.7305799            0    0.7138011    11.488627 
     112    2.9665101   -3.7347476            0   0.71390514     11.47221 
Loop time of 0.0159569 on 1 procs for 1 steps with 4000 atoms

97.9% CPU use with 1 MPI tasks x no OpenMP threads
run 1 pre no post no
Step Temp E_pair E_mol TotEng Press 
     112    2.9665101   -3.7347476            0   0.71390514     11.47221 
     113    2.9712307   -3.7414454            0   0.71428638    11.446234 
Loop time of 0.0159571 on 1 procs for 1 steps with 4000 atoms

97.9% CPU use with 1 MPI tasks x no OpenMP threads
run 1 pre no post no
Step Temp E_pair E_mol TotEng Press 
     113    2.9712307   -3.7414454            0   0.71428638    11.446234 
     114    2.9786059   -3.7522986            0   0.71449318    11.405718 
Loop time of 0.0159571 on 1 procs for 1 steps with 4000 atoms

97.9% CPU use with 1 MPI tasks x no OpenMP threads
run 1 pre no post no
Step Temp E_pair E_mol TotEng Press 
     114    2.9786059   -3.7522986            0   0.71449318    11.405718 
     115    2.9879558   -3.7661423            0     0.714671    11.354383 
Loop time of 0.014961 on 1 procs for 1 steps with 4000 atoms

104.4% CPU use with 1 MPI tasks x no OpenMP threads
run 1 pre no post no
Step Temp E_pair E_mol TotEng Press 
     115    2.9879558   -3.7661423            0     0.714671    11.354383 
     116    2.9959746   -3.7778437            0    0.7149947    11.309404 
Loop time of 0.015929 on 1 procs for 1 steps with 4000 atoms

392.4% CPU use with 1 MPI tasks x no OpenMP threads
run 1 pre no post no
Step Temp E_pair E_mol TotEng Press 
     116    2.9959746   -3.7778437            0    0.7149947    11.309404 
     117    2.9997382   -3.7829907            0   0.71549162    11.285466 
Loop time of 0.0159569 on 1 procs for 1 steps with 4000 atoms

97.9% CPU use with 1 MPI tasks x no OpenMP threads
run 1 pre no post no
Step Temp E_pair E_mol TotEng Press 
     117    2.9997382   -3.7829907            0   0.71549162    11.285466 
     118    2.9991613   -3.7811109            0   0.71650636    11.284221 
Loop time of 0.01596 on 1 procs for 1 steps with 4000 atoms

195.8% CPU use with 1 MPI tasks x no OpenMP threads
run 1 pre no post no
Step Temp E_pair E_mol TotEng Press 
     118    2.9991613   -3.7811109            0   0.71650636    11.284221 
     119    2.9975273   -3.7775342            0   0.71763275    11.289877 
Loop time of 0.015959 on 1 procs for 1 steps with 4000 atoms

293.7% CPU use with 1 MPI tasks x no OpenMP threads
run 1 pre no post no
Step Temp E_pair E_mol TotEng Press 
     119    2.9975273   -3.7775342            0   0.71763275    11.289877 
     120    2.9989454    -3.783953            0   0.71334044    11.273514 
Loop time of 0.026927 on 1 procs for 1 steps with 4000 atoms

116.1% CPU use with 1 MPI tasks x no OpenMP threads
run 1 pre no post no
Step Temp E_pair E_mol TotEng Press 
     120    2.9989454    -3.783953            0   0.71334044    11.273514 
     121    3.0023888   -3.7898651            0   0.71259224    11.255001 
Loop time of 0.014962 on 1 procs for 1 steps with 4000 atoms

0.0% CPU use with 1 MPI tasks x no OpenMP threads
run 1 pre no post no
Step Temp E_pair E_mol TotEng Press 
     121    3.0023888   -3.7898651            0   0.71259224    11.255001 
     122    3.0016098   -3.7891578            0   0.71213129     11.25915 
Loop time of 0.0157409 on 1 procs for 1 steps with 4000 atoms

297.8% CPU use with 1 MPI tasks x no OpenMP threads
run 1 pre no post no
Step Temp E_pair E_mol TotEng Press 
     122    3.0016098   -3.7891578            0   0.71213129     11.25915 
     123     2.993366   -3.7764187            0   0.71250776     11.30217 
Loop time of 0.0159578 on 1 procs for 1 steps with 4000 atoms

97.9% CPU use with 1 MPI tasks x no OpenMP threads
run 1 pre no post no
Step Temp E_pair E_mol TotEng Press 
     123     2.993366   -3.7764187            0   0.71250776     11.30217 
     124    2.9815087   -3.7578598            0   0.71328522     11.36396 
Loop time of 0.0159559 on 1 procs for 1 steps with 4000 atoms

489.6% CPU use with 1 MPI tasks x no OpenMP threads
run 1 pre no post no
Step Temp E_pair E_mol TotEng Press 
     124    2.9815087   -3.7578598            0   0.71328522     11.36396 
     125     2.972312   -3.7438179            0   0.71353539    11.412138 
Loop time of 0.0159571 on 1 procs for 1 steps with 4000 atoms

97.9% CPU use with 1 MPI tasks x no OpenMP threads
run 1 pre no post no
Step Temp E_pair E_mol TotEng Press 
     125     2.972312   -3.7438179            0   0.71353539    11.412138 
     126    2.9686755   -3.7383085            0   0.71359159    11.433428 
Loop time of 0.0159571 on 1 procs for 1 steps with 4000 atoms

195.8% CPU use with 1 MPI tasks x no OpenMP threads
run 1 pre no post no
Step Temp E_pair E_mol TotEng Press 
     126    2.9686755   -3.7383085            0   0.71359159    11.433428 
     127    2.9694814    -3.739785            0   0.71332356    11.432828 
Loop time of 0.0159559 on 1 procs for 1 steps with 4000 atoms

97.9% CPU use with 1 MPI tasks x no OpenMP threads
run 1 pre no post no
Step Temp E_pair E_mol TotEng Press 
     127    2.9694814    -3.739785            0   0.71332356    11.432828 
     128    2.9713805   -3.7430905            0     0.712866    11.426939 
Loop time of 0.0159569 on 1 procs for 1 steps with 4000 atoms

195.8% CPU use with 1 MPI tasks x no OpenMP threads
run 1 pre no post no
Step Temp E_pair E_mol TotEng Press 
     128    2.9713805   -3.7430905            0     0.712866    11.426939 
     129    2.9713474   -3.7429511            0   0.71295577    11.431688 
Loop time of 0.0149601 on 1 procs for 1 steps with 4000 atoms

313.3% CPU use with 1 MPI tasks x no OpenMP threads
run 1 pre no post no
Step Temp E_pair E_mol TotEng Press 
     129    2.9713474   -3.7429511            0   0.71295577    11.431688 
     130     2.967684   -3.7374843            0   0.71292876    11.454227 
Loop time of 0.0159581 on 1 procs for 1 steps with 4000 atoms

97.9% CPU use with 1 MPI tasks x no OpenMP threads
run 1 pre no post no
Step Temp E_pair E_mol TotEng Press 
     130     2.967684   -3.7374843            0   0.71292876    11.454227 
     131    2.9599394   -3.7256183            0   0.71318084    11.497649 
Loop time of 0.016175 on 1 procs for 1 steps with 4000 atoms

193.2% CPU use with 1 MPI tasks x no OpenMP threads
run 1 pre no post no
Step Temp E_pair E_mol TotEng Press 
     131    2.9599394   -3.7256183            0   0.71318084    11.497649 
     132    2.9500336   -3.7100574            0   0.71388676    11.553139 
Loop time of 0.0159841 on 1 procs for 1 steps with 4000 atoms

97.8% CPU use with 1 MPI tasks x no OpenMP threads
run 1 pre no post no
Step Temp E_pair E_mol TotEng Press 
     132    2.9500336   -3.7100574            0   0.71388676    11.553139 
     133    2.9421661    -3.697756            0   0.71438986    11.598989 
Loop time of 0.0149589 on 1 procs for 1 steps with 4000 atoms

208.9% CPU use with 1 MPI tasks x no OpenMP threads
run 1 pre no post no
Step Temp E_pair E_mol TotEng Press 
     133    2.9421661    -3.697756            0   0.71438986    11.598989 
     134    2.9393509   -3.6933256            0   0.71459852    11.620198 
Loop time of 0.0149598 on 1 procs for 1 steps with 4000 atoms

104.4% CPU use with 1 MPI tasks x no OpenMP threads
run 1 pre no post no
Step Temp E_pair E_mol TotEng Press 
     134    2.9393509   -3.6933256            0   0.71459852    11.620198 
     135    2.9405637   -3.6950838            0   0.71465907    11.621681 
Loop time of 0.0159571 on 1 procs for 1 steps with 4000 atoms

97.9% CPU use with 1 MPI tasks x no OpenMP threads
run 1 pre no post no
Step Temp E_pair E_mol TotEng Press 
     135    2.9405637   -3.6950838            0   0.71465907    11.621681 
     136    2.9417766   -3.6967545            0   0.71480724    11.622989 
Loop time of 0.0159581 on 1 procs for 1 steps with 4000 atoms

97.9% CPU use with 1 MPI tasks x no OpenMP threads
run 1 pre no post no
Step Temp E_pair E_mol TotEng Press 
     136    2.9417766   -3.6967545            0   0.71480724    11.622989 
     137    2.9395868   -3.6929805            0   0.71529735    11.640292 
Loop time of 0.014961 on 1 procs for 1 steps with 4000 atoms

104.4% CPU use with 1 MPI tasks x no OpenMP threads
run 1 pre no post no
Step Temp E_pair E_mol TotEng Press 
     137    2.9395868   -3.6929805            0   0.71529735    11.640292 
     138    2.9335086   -3.6831736            0   0.71598926     11.67489 
Loop time of 0.0149589 on 1 procs for 1 steps with 4000 atoms

208.9% CPU use with 1 MPI tasks x no OpenMP threads
run 1 pre no post no
Step Temp E_pair E_mol TotEng Press 
     138    2.9335086   -3.6831736            0   0.71598926     11.67489 
     139    2.9262034   -3.6709199            0   0.71728792     11.71399 
Loop time of 0.0159569 on 1 procs for 1 steps with 4000 atoms

97.9% CPU use with 1 MPI tasks x no OpenMP threads
run 1 pre no post no
Step Temp E_pair E_mol TotEng Press 
     139    2.9262034   -3.6709199            0   0.71728792     11.71399 
     140    2.9224035   -3.6691343            0   0.71337495    11.724219 
Loop time of 0.027436 on 1 procs for 1 steps with 4000 atoms

57.0% CPU use with 1 MPI tasks x no OpenMP threads
run 1 pre no post no
Step Temp E_pair E_mol TotEng Press 
     140    2.9224035   -3.6691343            0   0.71337495    11.724219 
     141    2.9253597   -3.6734151            0   0.71352752    11.704933 
Loop time of 0.0159578 on 1 procs for 1 steps with 4000 atoms

195.8% CPU use with 1 MPI tasks x no OpenMP threads
run 1 pre no post no
Step Temp E_pair E_mol TotEng Press 
     141    2.9253597   -3.6734151            0   0.71352752    11.704933 
     142    2.9350289   -3.6882422            0   0.71320055    11.648927 
Loop time of 0.0159569 on 1 procs for 1 steps with 4000 atoms

97.9% CPU use with 1 MPI tasks x no OpenMP threads
run 1 pre no post no
Step Temp E_pair E_mol TotEng Press 
     142    2.9350289   -3.6882422            0   0.71320055    11.648927 
     143     2.949842   -3.7107724            0   0.71288443    11.565348 
Loop time of 0.0159571 on 1 procs for 1 steps with 4000 atoms

97.9% CPU use with 1 MPI tasks x no OpenMP threads
run 1 pre no post no
Step Temp E_pair E_mol TotEng Press 
     143     2.949842   -3.7107724            0   0.71288443    11.565348 
     144     2.967566   -3.7378847            0   0.71235149    11.465683 
Loop time of 0.0154672 on 1 procs for 1 steps with 4000 atoms

303.1% CPU use with 1 MPI tasks x no OpenMP threads
run 1 pre no post no
Step Temp E_pair E_mol TotEng Press 
     144     2.967566   -3.7378847            0   0.71235149    11.465683 
     145    2.9849382   -3.7641549            0   0.71213307    11.367964 
Loop time of 0.0159559 on 1 procs for 1 steps with 4000 atoms

0.0% CPU use with 1 MPI tasks x no OpenMP threads
run 1 pre no post no
Step Temp E_pair E_mol TotEng Press 
     145    2.9849382   -3.7641549            0   0.71213307    11.367964 
     146     2.998582   -3.7846097            0   0.71213884    11.289867 
Loop time of 0.0159569 on 1 procs for 1 steps with 4000 atoms

391.7% CPU use with 1 MPI tasks x no OpenMP threads
run 1 pre no post no
Step Temp E_pair E_mol TotEng Press 
     146     2.998582   -3.7846097            0   0.71213884    11.289867 
     147    3.0067439   -3.7968397            0   0.71214863    11.240502 
Loop time of 0.0159559 on 1 procs for 1 steps with 4000 atoms

97.9% CPU use with 1 MPI tasks x no OpenMP threads
run 1 pre no post no
Step Temp E_pair E_mol TotEng Press 
     147    3.0067439   -3.7968397            0   0.71214863    11.240502 
     148    3.0090953   -3.8004142            0   0.71210041    11.222117 
Loop time of 0.0159571 on 1 procs for 1 steps with 4000 atoms

195.8% CPU use with 1 MPI tasks x no OpenMP threads
run 1 pre no post no
Step Temp E_pair E_mol TotEng Press 
     148    3.0090953   -3.8004142            0   0.71210041    11.222117 
     149    3.0059775    -3.795599            0   0.71224005    11.234119 
Loop time of 0.015959 on 1 procs for 1 steps with 4000 atoms

97.9% CPU use with 1 MPI tasks x no OpenMP threads
run 1 pre no post no
Step Temp E_pair E_mol TotEng Press 
     149    3.0059775    -3.795599            0   0.71224005    11.234119 
     150    2.9987342   -3.7844511            0   0.71252569    11.270025 
Loop time of 0.0159559 on 1 procs for 1 steps with 4000 atoms

97.9% CPU use with 1 MPI tasks x no OpenMP threads
run 1 pre no post no
Step Temp E_pair E_mol TotEng Press 
     150    2.9987342   -3.7844511            0   0.71252569    11.270025 
     151    2.9893083   -3.7701749            0   0.71266652    11.319398 
Loop time of 0.0159569 on 1 procs for 1 steps with 4000 atoms

195.8% CPU use with 1 MPI tasks x no OpenMP threads
run 1 pre no post no
Step Temp E_pair E_mol TotEng Press 
     151    2.9893083   -3.7701749            0   0.71266652    11.319398 
     152    2.9787806   -3.7541377            0   0.71291627    11.376521 
Loop time of 0.0159559 on 1 procs for 1 steps with 4000 atoms

97.9% CPU use with 1 MPI tasks x no OpenMP threads
run 1 pre no post no
Step Temp E_pair E_mol TotEng Press 
     152    2.9787806   -3.7541377            0   0.71291627    11.376521 
     153     2.967661    -3.736951            0    0.7134276    11.438337 
Loop time of 0.0159571 on 1 procs for 1 steps with 4000 atoms

391.7% CPU use with 1 MPI tasks x no OpenMP threads
run 1 pre no post no
Step Temp E_pair E_mol TotEng Press 
     153     2.967661    -3.736951            0    0.7134276    11.438337 
     154    2.9577461   -3.7214906            0   0.71401939    11.494615 
Loop time of 0.0169551 on 1 procs for 1 steps with 4000 atoms

92.2% CPU use with 1 MPI tasks x no OpenMP threads
run 1 pre no post no
Step Temp E_pair E_mol TotEng Press 
     154    2.9577461   -3.7214906            0   0.71401939    11.494615 
     155    2.9513368    -3.711665            0   0.71423343    11.532531 
Loop time of 0.0159569 on 1 procs for 1 steps with 4000 atoms

195.8% CPU use with 1 MPI tasks x no OpenMP threads
run 1 pre no post no
Step Temp E_pair E_mol TotEng Press 
     155    2.9513368    -3.711665            0   0.71423343    11.532531 
     156    2.9494633   -3.7083495            0   0.71473932    11.547789 
Loop time of 0.0159569 on 1 procs for 1 steps with 4000 atoms

293.8% CPU use with 1 MPI tasks x no OpenMP threads
run 1 pre no post no
Step Temp E_pair E_mol TotEng Press 
     156    2.9494633   -3.7083495            0   0.71473932    11.547789 
     157     2.951617   -3.7113326            0   0.71498609    11.541596 
Loop time of 0.0159581 on 1 procs for 1 steps with 4000 atoms

97.9% CPU use with 1 MPI tasks x no OpenMP threads
run 1 pre no post no
Step Temp E_pair E_mol TotEng Press 
     157     2.951617   -3.7113326            0   0.71498609    11.541596 
     158    2.9561673   -3.7178013            0   0.71534104    11.522598 
Loop time of 0.0159581 on 1 procs for 1 steps with 4000 atoms

97.9% CPU use with 1 MPI tasks x no OpenMP threads
run 1 pre no post no
Step Temp E_pair E_mol TotEng Press 
     158    2.9561673   -3.7178013            0   0.71534104    11.522598 
     159    2.9615365   -3.7253887            0   0.71580548    11.498825 
Loop time of 0.0159578 on 1 procs for 1 steps with 4000 atoms

97.9% CPU use with 1 MPI tasks x no OpenMP threads
run 1 pre no post no
Step Temp E_pair E_mol TotEng Press 
     159    2.9615365   -3.7253887            0   0.71580548    11.498825 
     160    2.9669463   -3.7374105            0   0.71189632    11.467247 
Loop time of 0.0259581 on 1 procs for 1 steps with 4000 atoms

120.4% CPU use with 1 MPI tasks x no OpenMP threads
run 1 pre no post no
Step Temp E_pair E_mol TotEng Press 
     160    2.9669463   -3.7374105            0   0.71189632    11.467247 
     161    2.9714031   -3.7443687            0   0.71162167    11.446555 
Loop time of 0.015985 on 1 procs for 1 steps with 4000 atoms

97.7% CPU use with 1 MPI tasks x no OpenMP threads
run 1 pre no post no
Step Temp E_pair E_mol TotEng Press 
     161    2.9714031   -3.7443687            0   0.71162167    11.446555 
     162    2.9726983   -3.7467307            0   0.71120199    11.441209 
Loop time of 0.0159581 on 1 procs for 1 steps with 4000 atoms

97.9% CPU use with 1 MPI tasks x no OpenMP threads
run 1 pre no post no
Step Temp E_pair E_mol TotEng Press 
     162    2.9726983   -3.7467307            0   0.71120199    11.441209 
     163    2.9687275   -3.7410625            0   0.71091543    11.462035 
Loop time of 0.015959 on 1 procs for 1 steps with 4000 atoms

293.7% CPU use with 1 MPI tasks x no OpenMP threads
run 1 pre no post no
Step Temp E_pair E_mol TotEng Press 
     163    2.9687275   -3.7410625            0   0.71091543    11.462035 
     164    2.9602292   -3.7278459            0   0.71138778    11.506486 
Loop time of 0.014961 on 1 procs for 1 steps with 4000 atoms

104.4% CPU use with 1 MPI tasks x no OpenMP threads
run 1 pre no post no
Step Temp E_pair E_mol TotEng Press 
     164    2.9602292   -3.7278459            0   0.71138778    11.506486 
     165     2.951089   -3.7137867            0   0.71174007    11.553465 
Loop time of 0.0159569 on 1 procs for 1 steps with 4000 atoms

195.8% CPU use with 1 MPI tasks x no OpenMP threads
run 1 pre no post no
Step Temp E_pair E_mol TotEng Press 
     165     2.951089   -3.7137867            0   0.71174007    11.553465 
     166    2.9441253   -3.7034653            0   0.71161859     11.58787 
Loop time of 0.0159578 on 1 procs for 1 steps with 4000 atoms

195.8% CPU use with 1 MPI tasks x no OpenMP threads
run 1 pre no post no
Step Temp E_pair E_mol TotEng Press 
     166    2.9441253   -3.7034653            0   0.71161859     11.58787 
     167    2.9394573   -3.6964665            0   0.71161707    11.609776 
Loop time of 0.0159581 on 1 procs for 1 steps with 4000 atoms

97.9% CPU use with 1 MPI tasks x no OpenMP threads
run 1 pre no post no
Step Temp E_pair E_mol TotEng Press 
     167    2.9394573   -3.6964665            0   0.71161707    11.609776 
     168    2.9378265   -3.6937672            0   0.71187085    11.615063 
Loop time of 0.0159571 on 1 procs for 1 steps with 4000 atoms

391.7% CPU use with 1 MPI tasks x no OpenMP threads
run 1 pre no post no
Step Temp E_pair E_mol TotEng Press 
     168    2.9378265   -3.6937672            0   0.71187085    11.615063 
     169    2.9408152   -3.6983564            0   0.71176362    11.594466 
Loop time of 0.0159559 on 1 procs for 1 steps with 4000 atoms

97.9% CPU use with 1 MPI tasks x no OpenMP threads
run 1 pre no post no
Step Temp E_pair E_mol TotEng Press 
     169    2.9408152   -3.6983564            0   0.71176362    11.594466 
     170    2.9481774   -3.7097903            0   0.71137028     11.54966 
Loop time of 0.0159569 on 1 procs for 1 steps with 4000 atoms

195.8% CPU use with 1 MPI tasks x no OpenMP threads
run 1 pre no post no
Step Temp E_pair E_mol TotEng Press 
     170    2.9481774   -3.7097903            0   0.71137028     11.54966 
     171    2.9580686   -3.7245616            0   0.71143201     11.49173 
Loop time of 0.0149601 on 1 procs for 1 steps with 4000 atoms

313.3% CPU use with 1 MPI tasks x no OpenMP threads
run 1 pre no post no
Step Temp E_pair E_mol TotEng Press 
     171    2.9580686   -3.7245616            0   0.71143201     11.49173 
     172    2.9686602   -3.7404039            0   0.71147318    11.429197 
Loop time of 0.014961 on 1 procs for 1 steps with 4000 atoms

104.4% CPU use with 1 MPI tasks x no OpenMP threads
run 1 pre no post no
Step Temp E_pair E_mol TotEng Press 
     172    2.9686602   -3.7404039            0   0.71147318    11.429197 
     173    2.9776551   -3.7538359            0   0.71153004    11.374061 
Loop time of 0.0159559 on 1 procs for 1 steps with 4000 atoms

97.9% CPU use with 1 MPI tasks x no OpenMP threads
run 1 pre no post no
Step Temp E_pair E_mol TotEng Press 
     173    2.9776551   -3.7538359            0   0.71153004    11.374061 
     174    2.9835489   -3.7621673            0   0.71203725    11.335213 
Loop time of 0.0159559 on 1 procs for 1 steps with 4000 atoms

97.9% CPU use with 1 MPI tasks x no OpenMP threads
run 1 pre no post no
Step Temp E_pair E_mol TotEng Press 
     174    2.9835489   -3.7621673            0   0.71203725    11.335213 
     175    2.9872413   -3.7673596            0   0.71238209    11.307279 
Loop time of 0.014992 on 1 procs for 1 steps with 4000 atoms

208.4% CPU use with 1 MPI tasks x no OpenMP threads
run 1 pre no post no
Step Temp E_pair E_mol TotEng Press 
     175    2.9872413   -3.7673596            0   0.71238209    11.307279 
     176    2.9896231   -3.7706532            0   0.71266037    11.286362 
Loop time of 0.0159581 on 1 procs for 1 steps with 4000 atoms

97.9% CPU use with 1 MPI tasks x no OpenMP threads
run 1 pre no post no
Step Temp E_pair E_mol TotEng Press 
     176    2.9896231   -3.7706532            0   0.71266037    11.286362 
     177    2.9902061   -3.7709512            0   0.71323672    11.275964 
Loop time of 0.0159581 on 1 procs for 1 steps with 4000 atoms

97.9% CPU use with 1 MPI tasks x no OpenMP threads
run 1 pre no post no
Step Temp E_pair E_mol TotEng Press 
     177    2.9902061   -3.7709512            0   0.71323672    11.275964 
     178    2.9885713    -3.767929            0   0.71380717    11.277775 
Loop time of 0.0149601 on 1 procs for 1 steps with 4000 atoms

313.3% CPU use with 1 MPI tasks x no OpenMP threads
run 1 pre no post no
Step Temp E_pair E_mol TotEng Press 
     178    2.9885713    -3.767929            0   0.71380717    11.277775 
     179    2.9851396   -3.7619831            0   0.71460687    11.290426 
Loop time of 0.0149622 on 1 procs for 1 steps with 4000 atoms

104.4% CPU use with 1 MPI tasks x no OpenMP threads
run 1 pre no post no
Step Temp E_pair E_mol TotEng Press 
     179    2.9851396   -3.7619831            0   0.71460687    11.290426 
     180    2.9815803   -3.7604814            0   0.71077096      11.2982 
Loop time of 0.026927 on 1 procs for 1 steps with 4000 atoms

116.1% CPU use with 1 MPI tasks x no OpenMP threads
run 1 pre no post no
Step Temp E_pair E_mol TotEng Press 
     180    2.9815803   -3.7604814            0   0.71077096      11.2982 
     181    2.9800269   -3.7583231            0   0.71059973    11.304446 
Loop time of 0.0159569 on 1 procs for 1 steps with 4000 atoms

293.8% CPU use with 1 MPI tasks x no OpenMP threads
run 1 pre no post no
Step Temp E_pair E_mol TotEng Press 
     181    2.9800269   -3.7583231            0   0.71059973    11.304446 
     182    2.9806673    -3.759557            0   0.71032618    11.301669 
Loop time of 0.0159571 on 1 procs for 1 steps with 4000 atoms

195.8% CPU use with 1 MPI tasks x no OpenMP threads
run 1 pre no post no
Step Temp E_pair E_mol TotEng Press 
     182    2.9806673    -3.759557            0   0.71032618    11.301669 
     183    2.9822093   -3.7619516            0   0.71024405    11.296701 
Loop time of 0.0159562 on 1 procs for 1 steps with 4000 atoms

391.7% CPU use with 1 MPI tasks x no OpenMP threads
run 1 pre no post no
Step Temp E_pair E_mol TotEng Press 
     183    2.9822093   -3.7619516            0   0.71024405    11.296701 
     184     2.984009   -3.7647149            0   0.71017966    11.291914 
Loop time of 0.0159559 on 1 procs for 1 steps with 4000 atoms

97.9% CPU use with 1 MPI tasks x no OpenMP threads
run 1 pre no post no
Step Temp E_pair E_mol TotEng Press 
     184     2.984009   -3.7647149            0   0.71017966    11.291914 
     185    2.9854989   -3.7667615            0   0.71036733      11.2901 
Loop time of 0.0159569 on 1 procs for 1 steps with 4000 atoms

195.8% CPU use with 1 MPI tasks x no OpenMP threads
run 1 pre no post no
Step Temp E_pair E_mol TotEng Press 
     185    2.9854989   -3.7667615            0   0.71036733      11.2901 
     186    2.9857422   -3.7672434            0   0.71025016    11.294818 
Loop time of 0.0159571 on 1 procs for 1 steps with 4000 atoms

97.9% CPU use with 1 MPI tasks x no OpenMP threads
run 1 pre no post no
Step Temp E_pair E_mol TotEng Press 
     186    2.9857422   -3.7672434            0   0.71025016    11.294818 
     187    2.9847352   -3.7655752            0   0.71040834    11.306644 
Loop time of 0.0159261 on 1 procs for 1 steps with 4000 atoms

98.1% CPU use with 1 MPI tasks x no OpenMP threads
run 1 pre no post no
Step Temp E_pair E_mol TotEng Press 
     187    2.9847352   -3.7655752            0   0.71040834    11.306644 
     188    2.9829351   -3.7625885            0   0.71069562    11.322514 
Loop time of 0.0169551 on 1 procs for 1 steps with 4000 atoms

276.5% CPU use with 1 MPI tasks x no OpenMP threads
run 1 pre no post no
Step Temp E_pair E_mol TotEng Press 
     188    2.9829351   -3.7625885            0   0.71069562    11.322514 
     189    2.9800268   -3.7581467            0   0.71077598    11.343217 
Loop time of 0.0149598 on 1 procs for 1 steps with 4000 atoms

104.4% CPU use with 1 MPI tasks x no OpenMP threads
run 1 pre no post no
Step Temp E_pair E_mol TotEng Press 
     189    2.9800268   -3.7581467            0   0.71077598    11.343217 
     190     2.975975   -3.7517767            0   0.71106986    11.369445 
Loop time of 0.0159569 on 1 procs for 1 steps with 4000 atoms

391.7% CPU use with 1 MPI tasks x no OpenMP threads
run 1 pre no post no
Step Temp E_pair E_mol TotEng Press 
     190     2.975975   -3.7517767            0   0.71106986    11.369445 
     191    2.9717654   -3.7451793            0   0.71135437    11.395855 
Loop time of 0.0159571 on 1 procs for 1 steps with 4000 atoms

97.9% CPU use with 1 MPI tasks x no OpenMP threads
run 1 pre no post no
Step Temp E_pair E_mol TotEng Press 
     191    2.9717654   -3.7451793            0   0.71135437    11.395855 
     192    2.9689563   -3.7407219            0   0.71159926     11.41502 
Loop time of 0.0159571 on 1 procs for 1 steps with 4000 atoms

195.8% CPU use with 1 MPI tasks x no OpenMP threads
run 1 pre no post no
Step Temp E_pair E_mol TotEng Press 
     192    2.9689563   -3.7407219            0   0.71159926     11.41502 
     193    2.9690825   -3.7405281            0   0.71198222    11.419423 
Loop time of 0.0169559 on 1 procs for 1 steps with 4000 atoms

276.5% CPU use with 1 MPI tasks x no OpenMP threads
run 1 pre no post no
Step Temp E_pair E_mol TotEng Press 
     193    2.9690825   -3.7405281            0   0.71198222    11.419423 
     194    2.9718397   -3.7445244            0   0.71212073    11.409813 
Loop time of 0.0159569 on 1 procs for 1 steps with 4000 atoms

97.9% CPU use with 1 MPI tasks x no OpenMP threads
run 1 pre no post no
Step Temp E_pair E_mol TotEng Press 
     194    2.9718397   -3.7445244            0   0.71212073    11.409813 
     195    2.9755656   -3.7499583            0   0.71227424    11.394602 
Loop time of 0.0159569 on 1 procs for 1 steps with 4000 atoms

97.9% CPU use with 1 MPI tasks x no OpenMP threads
run 1 pre no post no
Step Temp E_pair E_mol TotEng Press 
     195    2.9755656   -3.7499583            0   0.71227424    11.394602 
     196    2.9789129   -3.7544103            0   0.71284191    11.380796 
Loop time of 0.0199461 on 1 procs for 1 steps with 4000 atoms

313.3% CPU use with 1 MPI tasks x no OpenMP threads
run 1 pre no post no
Step Temp E_pair E_mol TotEng Press 
     196    2.9789129   -3.7544103            0   0.71284191    11.380796 
     197    2.9811721   -3.7572511            0    0.7133891     11.37141 
Loop time of 0.0159581 on 1 procs for 1 steps with 4000 atoms

391.7% CPU use with 1 MPI tasks x no OpenMP threads
run 1 pre no post no
Step Temp E_pair E_mol TotEng Press 
     197    2.9811721   -3.7572511            0    0.7133891     11.37141 
     198    2.9824253   -3.7586402            0   0.71387932    11.366165 
Loop time of 0.0169549 on 1 procs for 1 steps with 4000 atoms

92.2% CPU use with 1 MPI tasks x no OpenMP threads
run 1 pre no post no
Step Temp E_pair E_mol TotEng Press 
     198    2.9824253   -3.7586402            0   0.71387932    11.366165 
     199     2.982448   -3.7584248            0   0.71412878    11.365886 
Loop time of 0.0159578 on 1 procs for 1 steps with 4000 atoms

97.9% CPU use with 1 MPI tasks x no OpenMP threads
run 1 pre no post no
Step Temp E_pair E_mol TotEng Press 
     199     2.982448   -3.7584248            0   0.71412878    11.365886 
     200    2.9800494   -3.7588872            0   0.71006936    11.369826 
Loop time of 0.025929 on 1 procs for 1 steps with 4000 atoms

241.0% CPU use with 1 MPI tasks x no OpenMP threads
run 1 pre no post no
Step Temp E_pair E_mol TotEng Press 
     200    2.9800494   -3.7588872            0   0.71006936    11.369826 
     201    2.9747544   -3.7506522            0   0.71036392    11.395153 
Loop time of 0.0159559 on 1 procs for 1 steps with 4000 atoms

97.9% CPU use with 1 MPI tasks x no OpenMP threads
run 1 pre no post no
Step Temp E_pair E_mol TotEng Press 
     201    2.9747544   -3.7506522            0   0.71036392    11.395153 
     202    2.9692707   -3.7420151            0   0.71077756    11.421593 
Loop time of 0.0169549 on 1 procs for 1 steps with 4000 atoms

184.3% CPU use with 1 MPI tasks x no OpenMP threads
run 1 pre no post no
Step Temp E_pair E_mol TotEng Press 
     202    2.9692707   -3.7420151            0   0.71077756    11.421593 
     203    2.9668951   -3.7386018            0   0.71062829    11.431058 
Loop time of 0.0159552 on 1 procs for 1 steps with 4000 atoms

195.9% CPU use with 1 MPI tasks x no OpenMP threads
run 1 pre no post no
Step Temp E_pair E_mol TotEng Press 
     203    2.9668951   -3.7386018            0   0.71062829    11.431058 
     204    2.9661862   -3.7376826            0   0.71048434    11.432168 
Loop time of 0.0159562 on 1 procs for 1 steps with 4000 atoms

97.9% CPU use with 1 MPI tasks x no OpenMP threads
run 1 pre no post no
Step Temp E_pair E_mol TotEng Press 
     204    2.9661862   -3.7376826            0   0.71048434    11.432168 
     205    2.9653302   -3.7362129            0    0.7106704    11.434337 
Loop time of 0.0159271 on 1 procs for 1 steps with 4000 atoms

392.4% CPU use with 1 MPI tasks x no OpenMP threads
run 1 pre no post no
Step Temp E_pair E_mol TotEng Press 
     205    2.9653302   -3.7362129            0    0.7106704    11.434337 
     206     2.965449   -3.7364561            0   0.71060538      11.4309 
Loop time of 0.0158901 on 1 procs for 1 steps with 4000 atoms

98.3% CPU use with 1 MPI tasks x no OpenMP threads
run 1 pre no post no
Step Temp E_pair E_mol TotEng Press 
     206     2.965449   -3.7364561            0   0.71060538      11.4309 
     207     2.967275   -3.7392145            0   0.71058531    11.419662 
Loop time of 0.016983 on 1 procs for 1 steps with 4000 atoms

184.0% CPU use with 1 MPI tasks x no OpenMP threads
run 1 pre no post no
Step Temp E_pair E_mol TotEng Press 
     207     2.967275   -3.7392145            0   0.71058531    11.419662 
     208    2.9699069   -3.7433024            0   0.71044433      11.4053 
Loop time of 0.0159862 on 1 procs for 1 steps with 4000 atoms

97.7% CPU use with 1 MPI tasks x no OpenMP threads
run 1 pre no post no
Step Temp E_pair E_mol TotEng Press 
     208    2.9699069   -3.7433024            0   0.71044433      11.4053 
     209    2.9710593   -3.7453884            0    0.7100864    11.399065 
Loop time of 0.015929 on 1 procs for 1 steps with 4000 atoms

98.1% CPU use with 1 MPI tasks x no OpenMP threads
run 1 pre no post no
Step Temp E_pair E_mol TotEng Press 
     209    2.9710593   -3.7453884            0    0.7100864    11.399065 
     210    2.9678981   -3.7408607            0    0.7098735    11.415366 
Loop time of 0.0159562 on 1 procs for 1 steps with 4000 atoms

97.9% CPU use with 1 MPI tasks x no OpenMP threads
run 1 pre no post no
Step Temp E_pair E_mol TotEng Press 
     210    2.9678981   -3.7408607            0    0.7098735    11.415366 
     211    2.9593193   -3.7276727            0   0.71019658    11.460377 
Loop time of 0.016953 on 1 procs for 1 steps with 4000 atoms

92.2% CPU use with 1 MPI tasks x no OpenMP threads
run 1 pre no post no
Step Temp E_pair E_mol TotEng Press 
     211    2.9593193   -3.7276727            0   0.71019658    11.460377 
     212    2.9479958   -3.7099974            0   0.71089084    11.520353 
Loop time of 0.0159581 on 1 procs for 1 steps with 4000 atoms

391.7% CPU use with 1 MPI tasks x no OpenMP threads
run 1 pre no post no
Step Temp E_pair E_mol TotEng Press 
     212    2.9479958   -3.7099974            0   0.71089084    11.520353 
     213    2.9381172   -3.6947024            0   0.71137156    11.573358 
Loop time of 0.0149589 on 1 procs for 1 steps with 4000 atoms

104.5% CPU use with 1 MPI tasks x no OpenMP threads
run 1 pre no post no
Step Temp E_pair E_mol TotEng Press 
     213    2.9381172   -3.6947024            0   0.71137156    11.573358 
     214    2.9317781   -3.6848904            0   0.71167736    11.608948 
Loop time of 0.0159431 on 1 procs for 1 steps with 4000 atoms

196.0% CPU use with 1 MPI tasks x no OpenMP threads
run 1 pre no post no
Step Temp E_pair E_mol TotEng Press 
     214    2.9317781   -3.6848904            0   0.71167736    11.608948 
     215    2.9291685   -3.6807936            0   0.71186082    11.626197 
Loop time of 0.016464 on 1 procs for 1 steps with 4000 atoms

284.7% CPU use with 1 MPI tasks x no OpenMP threads
run 1 pre no post no
Step Temp E_pair E_mol TotEng Press 
     215    2.9291685   -3.6807936            0   0.71186082    11.626197 
     216      2.93048   -3.6823295            0   0.71229149    11.624243 
Loop time of 0.0159581 on 1 procs for 1 steps with 4000 atoms

97.9% CPU use with 1 MPI tasks x no OpenMP threads
run 1 pre no post no
Step Temp E_pair E_mol TotEng Press 
     216      2.93048   -3.6823295            0   0.71229149    11.624243 
     217    2.9352803   -3.6893035            0   0.71251621    11.604173 
Loop time of 0.015929 on 1 procs for 1 steps with 4000 atoms

98.1% CPU use with 1 MPI tasks x no OpenMP threads
run 1 pre no post no
Step Temp E_pair E_mol TotEng Press 
     217    2.9352803   -3.6893035            0   0.71251621    11.604173 
     218    2.9422984   -3.6991517            0   0.71319258     11.57352 
Loop time of 0.0149591 on 1 procs for 1 steps with 4000 atoms

104.5% CPU use with 1 MPI tasks x no OpenMP threads
run 1 pre no post no
Step Temp E_pair E_mol TotEng Press 
     218    2.9422984   -3.6991517            0   0.71319258     11.57352 
     219    2.9507276   -3.7114547            0   0.71353009    11.534962 
Loop time of 0.0149598 on 1 procs for 1 steps with 4000 atoms

208.9% CPU use with 1 MPI tasks x no OpenMP threads
run 1 pre no post no
Step Temp E_pair E_mol TotEng Press 
     219    2.9507276   -3.7114547            0   0.71353009    11.534962 
     220    2.9592061   -3.7285926            0   0.70910688    11.487779 
Loop time of 0.0268991 on 1 procs for 1 steps with 4000 atoms

174.3% CPU use with 1 MPI tasks x no OpenMP threads
run 1 pre no post no
Step Temp E_pair E_mol TotEng Press 
     220    2.9592061   -3.7285926            0   0.70910688    11.487779 
     221    2.9642391   -3.7364798            0   0.70876724    11.464235 
Loop time of 0.0149598 on 1 procs for 1 steps with 4000 atoms

104.4% CPU use with 1 MPI tasks x no OpenMP threads
run 1 pre no post no
Step Temp E_pair E_mol TotEng Press 
     221    2.9642391   -3.7364798            0   0.70876724    11.464235 
     222    2.9633605   -3.7347097            0   0.70921979    11.470882 
Loop time of 0.0159571 on 1 procs for 1 steps with 4000 atoms

195.8% CPU use with 1 MPI tasks x no OpenMP threads
run 1 pre no post no
Step Temp E_pair E_mol TotEng Press 
     222    2.9633605   -3.7347097            0   0.70921979    11.470882 
     223    2.9582667   -3.7268485            0   0.70944226    11.497379 
Loop time of 0.0159581 on 1 procs for 1 steps with 4000 atoms

97.9% CPU use with 1 MPI tasks x no OpenMP threads
run 1 pre no post no
Step Temp E_pair E_mol TotEng Press 
     223    2.9582667   -3.7268485            0   0.70944226    11.497379 
     224    2.9525009   -3.7182682            0   0.70937588    11.526066 
Loop time of 0.0159571 on 1 procs for 1 steps with 4000 atoms

97.9% CPU use with 1 MPI tasks x no OpenMP threads
run 1 pre no post no
Step Temp E_pair E_mol TotEng Press 
     224    2.9525009   -3.7182682            0   0.70937588    11.526066 
     225    2.9483672   -3.7119114            0   0.70953369    11.546472 
Loop time of 0.0159559 on 1 procs for 1 steps with 4000 atoms

293.8% CPU use with 1 MPI tasks x no OpenMP threads
run 1 pre no post no
Step Temp E_pair E_mol TotEng Press 
     225    2.9483672   -3.7119114            0   0.70953369    11.546472 
     226    2.9465313   -3.7090753            0   0.70961673    11.554507 
Loop time of 0.0159569 on 1 procs for 1 steps with 4000 atoms

97.9% CPU use with 1 MPI tasks x no OpenMP threads
run 1 pre no post no
Step Temp E_pair E_mol TotEng Press 
     226    2.9465313   -3.7090753            0   0.70961673    11.554507 
     227    2.9463831   -3.7090631            0   0.70940669    11.552546 
Loop time of 0.0169539 on 1 procs for 1 steps with 4000 atoms

368.6% CPU use with 1 MPI tasks x no OpenMP threads
run 1 pre no post no
Step Temp E_pair E_mol TotEng Press 
     227    2.9463831   -3.7090631            0   0.70940669    11.552546 
     228    2.9468463   -3.7098916            0   0.70927288    11.546354 
Loop time of 0.0159571 on 1 procs for 1 steps with 4000 atoms

97.9% CPU use with 1 MPI tasks x no OpenMP threads
run 1 pre no post no
Step Temp E_pair E_mol TotEng Press 
     228    2.9468463   -3.7098916            0   0.70927288    11.546354 
     229    2.9475334   -3.7110224            0   0.70917238     11.53782 
Loop time of 0.0159578 on 1 procs for 1 steps with 4000 atoms

195.8% CPU use with 1 MPI tasks x no OpenMP threads
run 1 pre no post no
Step Temp E_pair E_mol TotEng Press 
     229    2.9475334   -3.7110224            0   0.70917238     11.53782 
     230    2.9490317   -3.7130792            0   0.70936246    11.524371 
Loop time of 0.0159559 on 1 procs for 1 steps with 4000 atoms

97.9% CPU use with 1 MPI tasks x no OpenMP threads
run 1 pre no post no
Step Temp E_pair E_mol TotEng Press 
     230    2.9490317   -3.7130792            0   0.70936246    11.524371 
     231    2.9515395   -3.7167232            0   0.70947924    11.504452 
Loop time of 0.017952 on 1 procs for 1 steps with 4000 atoms

348.2% CPU use with 1 MPI tasks x no OpenMP threads
run 1 pre no post no
Step Temp E_pair E_mol TotEng Press 
     231    2.9515395   -3.7167232            0   0.70947924    11.504452 
     232    2.9548778   -3.7212349            0   0.70997368     11.48016 
Loop time of 0.0159571 on 1 procs for 1 steps with 4000 atoms

97.9% CPU use with 1 MPI tasks x no OpenMP threads
run 1 pre no post no
Step Temp E_pair E_mol TotEng Press 
     232    2.9548778   -3.7212349            0   0.70997368     11.48016 
     233    2.9599168   -3.7283533            0   0.71041195    11.446911 
Loop time of 0.0159571 on 1 procs for 1 steps with 4000 atoms

97.9% CPU use with 1 MPI tasks x no OpenMP threads
run 1 pre no post no
Step Temp E_pair E_mol TotEng Press 
     233    2.9599168   -3.7283533            0   0.71041195    11.446911 
     234     2.967212   -3.7390323            0   0.71067306    11.402042 
Loop time of 0.0169539 on 1 procs for 1 steps with 4000 atoms

184.3% CPU use with 1 MPI tasks x no OpenMP threads
run 1 pre no post no
Step Temp E_pair E_mol TotEng Press 
     234     2.967212   -3.7390323            0   0.71067306    11.402042 
     235     2.975066   -3.7505463            0   0.71093709      11.3549 
Loop time of 0.015929 on 1 procs for 1 steps with 4000 atoms

98.1% CPU use with 1 MPI tasks x no OpenMP threads
run 1 pre no post no
Step Temp E_pair E_mol TotEng Press 
     235     2.975066   -3.7505463            0   0.71093709      11.3549 
     236    2.9817474   -3.7600201            0   0.71148285    11.315065 
Loop time of 0.0169261 on 1 procs for 1 steps with 4000 atoms

184.6% CPU use with 1 MPI tasks x no OpenMP threads
run 1 pre no post no
Step Temp E_pair E_mol TotEng Press 
     236    2.9817474   -3.7600201            0   0.71148285    11.315065 
     237    2.9875666   -3.7682263            0   0.71200323    11.280773 
Loop time of 0.0169542 on 1 procs for 1 steps with 4000 atoms

276.5% CPU use with 1 MPI tasks x no OpenMP threads
run 1 pre no post no
Step Temp E_pair E_mol TotEng Press 
     237    2.9875666   -3.7682263            0   0.71200323    11.280773 
     238    2.9932882   -3.7762196            0   0.71259025    11.249103 
Loop time of 0.0159569 on 1 procs for 1 steps with 4000 atoms

97.9% CPU use with 1 MPI tasks x no OpenMP threads
run 1 pre no post no
Step Temp E_pair E_mol TotEng Press 
     238    2.9932882   -3.7762196            0   0.71259025    11.249103 
     239    2.9993182   -3.7846215            0   0.71323099    11.218735 
Loop time of 0.0149598 on 1 procs for 1 steps with 4000 atoms

417.8% CPU use with 1 MPI tasks x no OpenMP threads
run 1 pre no post no
Step Temp E_pair E_mol TotEng Press 
     239    2.9993182   -3.7846215            0   0.71323099    11.218735 
     240    3.0058881   -3.7987507            0    0.7089543    11.180673 
Loop time of 0.027952 on 1 procs for 1 steps with 4000 atoms

223.6% CPU use with 1 MPI tasks x no OpenMP threads
run 1 pre no post no
Step Temp E_pair E_mol TotEng Press 
     240    3.0058881   -3.7987507            0    0.7089543    11.180673 
     241    3.0115174   -3.8075088            0   0.70863791    11.157136 
Loop time of 0.0169549 on 1 procs for 1 steps with 4000 atoms

92.2% CPU use with 1 MPI tasks x no OpenMP threads
run 1 pre no post no
Step Temp E_pair E_mol TotEng Press 
     241    3.0115174   -3.8075088            0   0.70863791    11.157136 
     242    3.0125915   -3.8096872            0    0.7080704    11.158516 
Loop time of 0.017951 on 1 procs for 1 steps with 4000 atoms

[...]
Step Temp E_pair E_mol TotEng Press 
     751    2.9313747   -3.7066729            0   0.68928981    11.551152 
     752     2.934551   -3.7114931            0   0.68923284    11.535311 
Loop time of 0.0159581 on 1 procs for 1 steps with 4000 atoms

195.8% CPU use with 1 MPI tasks x no OpenMP threads
run 1 pre no post no
Step Temp E_pair E_mol TotEng Press 
     752     2.934551   -3.7114931            0   0.68923284    11.535311 
     753    2.9412826   -3.7217509            0   0.68907004    11.500764 
Loop time of 0.0169542 on 1 procs for 1 steps with 4000 atoms

276.5% CPU use with 1 MPI tasks x no OpenMP threads
run 1 pre no post no
Step Temp E_pair E_mol TotEng Press 
     753    2.9412826   -3.7217509            0   0.68907004    11.500764 
     754      2.94929   -3.7337549            0   0.68907421     11.45966 
Loop time of 0.0159569 on 1 procs for 1 steps with 4000 atoms

97.9% CPU use with 1 MPI tasks x no OpenMP threads
run 1 pre no post no
Step Temp E_pair E_mol TotEng Press 
     754      2.94929   -3.7337549            0   0.68907421     11.45966 
     755    2.9561045   -3.7437762            0   0.68927198    11.424851 
Loop time of 0.0169559 on 1 procs for 1 steps with 4000 atoms

276.5% CPU use with 1 MPI tasks x no OpenMP threads
run 1 pre no post no
Step Temp E_pair E_mol TotEng Press 
     755    2.9561045   -3.7437762            0   0.68927198    11.424851 
     756    2.9602312   -3.7496061            0   0.68963061    11.403808 
Loop time of 0.0169861 on 1 procs for 1 steps with 4000 atoms

92.0% CPU use with 1 MPI tasks x no OpenMP threads
run 1 pre no post no
Step Temp E_pair E_mol TotEng Press 
     756    2.9602312   -3.7496061            0   0.68963061    11.403808 
     757    2.9609861   -3.7501509            0   0.69021786     11.40035 
Loop time of 0.0159571 on 1 procs for 1 steps with 4000 atoms

195.8% CPU use with 1 MPI tasks x no OpenMP threads
run 1 pre no post no
Step Temp E_pair E_mol TotEng Press 
     757    2.9609861   -3.7501509            0   0.69021786     11.40035 
     758    2.9586686   -3.7458498            0   0.69104358     11.41311 
Loop time of 0.0169539 on 1 procs for 1 steps with 4000 atoms

92.2% CPU use with 1 MPI tasks x no OpenMP threads
run 1 pre no post no
Step Temp E_pair E_mol TotEng Press 
     758    2.9586686   -3.7458498            0   0.69104358     11.41311 
     759    2.9545406    -3.738961            0   0.69174196    11.435141 
Loop time of 0.0165188 on 1 procs for 1 steps with 4000 atoms

94.6% CPU use with 1 MPI tasks x no OpenMP threads
run 1 pre no post no
Step Temp E_pair E_mol TotEng Press 
     759    2.9545406    -3.738961            0   0.69174196    11.435141 
     760      2.95037   -3.7363666            0   0.68808194    11.450612 
Loop time of 0.026927 on 1 procs for 1 steps with 4000 atoms

174.1% CPU use with 1 MPI tasks x no OpenMP threads
run 1 pre no post no
Step Temp E_pair E_mol TotEng Press 
     760      2.95037   -3.7363666            0   0.68808194    11.450612 
     761    2.9477152   -3.7322406            0   0.68822684    11.465252 
Loop time of 0.016953 on 1 procs for 1 steps with 4000 atoms

92.2% CPU use with 1 MPI tasks x no OpenMP threads
run 1 pre no post no
Step Temp E_pair E_mol TotEng Press 
     761    2.9477152   -3.7322406            0   0.68822684    11.465252 
     762    2.9472379   -3.7315921            0   0.68815951    11.468579 
Loop time of 0.0159571 on 1 procs for 1 steps with 4000 atoms

195.8% CPU use with 1 MPI tasks x no OpenMP threads
run 1 pre no post no
Step Temp E_pair E_mol TotEng Press 
     762    2.9472379   -3.7315921            0   0.68815951    11.468579 
     763    2.9484801   -3.7336328            0   0.68798161     11.46275 
Loop time of 0.0159862 on 1 procs for 1 steps with 4000 atoms

195.5% CPU use with 1 MPI tasks x no OpenMP threads
run 1 pre no post no
Step Temp E_pair E_mol TotEng Press 
     763    2.9484801   -3.7336328            0   0.68798161     11.46275 
     764    2.9502928   -3.7365261            0   0.68780677     11.45355 
Loop time of 0.0159571 on 1 procs for 1 steps with 4000 atoms

97.9% CPU use with 1 MPI tasks x no OpenMP threads
run 1 pre no post no
Step Temp E_pair E_mol TotEng Press 
     764    2.9502928   -3.7365261            0   0.68780677     11.45355 
     765    2.9520693   -3.7390523            0    0.6879447    11.444492 
Loop time of 0.0159571 on 1 procs for 1 steps with 4000 atoms

195.8% CPU use with 1 MPI tasks x no OpenMP threads
run 1 pre no post no
Step Temp E_pair E_mol TotEng Press 
     765    2.9520693   -3.7390523            0    0.6879447    11.444492 
     766    2.9539419   -3.7417711            0   0.68803401    11.434357 
Loop time of 0.0159562 on 1 procs for 1 steps with 4000 atoms

97.9% CPU use with 1 MPI tasks x no OpenMP threads
run 1 pre no post no
Step Temp E_pair E_mol TotEng Press 
     766    2.9539419   -3.7417711            0   0.68803401    11.434357 
     767    2.9558516   -3.7445071            0   0.68816177    11.423839 
Loop time of 0.01597 on 1 procs for 1 steps with 4000 atoms

195.7% CPU use with 1 MPI tasks x no OpenMP threads
run 1 pre no post no
Step Temp E_pair E_mol TotEng Press 
     767    2.9558516   -3.7445071            0   0.68816177    11.423839 
     768    2.9578962   -3.7473499            0   0.68838522    11.413068 
Loop time of 0.0169551 on 1 procs for 1 steps with 4000 atoms

276.5% CPU use with 1 MPI tasks x no OpenMP threads
run 1 pre no post no
Step Temp E_pair E_mol TotEng Press 
     768    2.9578962   -3.7473499            0   0.68838522    11.413068 
     769    2.9609501   -3.7520193            0   0.68829552    11.397314 
Loop time of 0.0159578 on 1 procs for 1 steps with 4000 atoms

97.9% CPU use with 1 MPI tasks x no OpenMP threads
run 1 pre no post no
Step Temp E_pair E_mol TotEng Press 
     769    2.9609501   -3.7520193            0   0.68829552    11.397314 
     770    2.9650714   -3.7583767            0   0.68811859    11.377013 
Loop time of 0.0159571 on 1 procs for 1 steps with 4000 atoms

97.9% CPU use with 1 MPI tasks x no OpenMP threads
run 1 pre no post no
Step Temp E_pair E_mol TotEng Press 
     770    2.9650714   -3.7583767            0   0.68811859    11.377013 
     771    2.9683242   -3.7634273            0   0.68794594    11.361938 
Loop time of 0.0159571 on 1 procs for 1 steps with 4000 atoms

0.0% CPU use with 1 MPI tasks x no OpenMP threads
run 1 pre no post no
Step Temp E_pair E_mol TotEng Press 
     771    2.9683242   -3.7634273            0   0.68794594    11.361938 
     772    2.9675397   -3.7622162            0   0.68798053    11.367664 
Loop time of 0.0159569 on 1 procs for 1 steps with 4000 atoms

195.8% CPU use with 1 MPI tasks x no OpenMP threads
run 1 pre no post no
Step Temp E_pair E_mol TotEng Press 
     772    2.9675397   -3.7622162            0   0.68798053    11.367664 
     773    2.9605218    -3.751163            0   0.68850954    11.405224 
Loop time of 0.0169539 on 1 procs for 1 steps with 4000 atoms

92.2% CPU use with 1 MPI tasks x no OpenMP threads
run 1 pre no post no
Step Temp E_pair E_mol TotEng Press 
     773    2.9605218    -3.751163            0   0.68850954    11.405224 
     774    2.9489872   -3.7331274            0   0.68924752    11.465588 
Loop time of 0.0159571 on 1 procs for 1 steps with 4000 atoms

97.9% CPU use with 1 MPI tasks x no OpenMP threads
run 1 pre no post no
Step Temp E_pair E_mol TotEng Press 
     774    2.9489872   -3.7331274            0   0.68924752    11.465588 
     775    2.9381481   -3.7164461            0   0.68967422     11.52182 
Loop time of 0.016983 on 1 procs for 1 steps with 4000 atoms

276.0% CPU use with 1 MPI tasks x no OpenMP threads
run 1 pre no post no
Step Temp E_pair E_mol TotEng Press 
     775    2.9381481   -3.7164461            0   0.68967422     11.52182 
     776    2.9320911   -3.7071238            0   0.68991333    11.553967 
Loop time of 0.0159571 on 1 procs for 1 steps with 4000 atoms

97.9% CPU use with 1 MPI tasks x no OpenMP threads
run 1 pre no post no
Step Temp E_pair E_mol TotEng Press 
     776    2.9320911   -3.7071238            0   0.68991333    11.553967 
     777    2.9319042   -3.7064072            0   0.69034969    11.557409 
Loop time of 0.0159569 on 1 procs for 1 steps with 4000 atoms

97.9% CPU use with 1 MPI tasks x no OpenMP threads
run 1 pre no post no
Step Temp E_pair E_mol TotEng Press 
     777    2.9319042   -3.7064072            0   0.69034969    11.557409 
     778    2.9370833   -3.7139313            0   0.69059227    11.533692 
Loop time of 0.0159571 on 1 procs for 1 steps with 4000 atoms

97.9% CPU use with 1 MPI tasks x no OpenMP threads
run 1 pre no post no
Step Temp E_pair E_mol TotEng Press 
     778    2.9370833   -3.7139313            0   0.69059227    11.533692 
     779    2.9456877   -3.7264494            0   0.69097752     11.49288 
Loop time of 0.0159569 on 1 procs for 1 steps with 4000 atoms

195.8% CPU use with 1 MPI tasks x no OpenMP threads
run 1 pre no post no
Step Temp E_pair E_mol TotEng Press 
     779    2.9456877   -3.7264494            0   0.69097752     11.49288 
     780    2.9548923   -3.7445748            0   0.68665562     11.44127 
Loop time of 0.0279551 on 1 procs for 1 steps with 4000 atoms

167.7% CPU use with 1 MPI tasks x no OpenMP threads
run 1 pre no post no
Step Temp E_pair E_mol TotEng Press 
     780    2.9548923   -3.7445748            0   0.68665562     11.44127 
     781    2.9627128   -3.7565026            0   0.68645566    11.403722 
Loop time of 0.0169539 on 1 procs for 1 steps with 4000 atoms

92.2% CPU use with 1 MPI tasks x no OpenMP threads
run 1 pre no post no
Step Temp E_pair E_mol TotEng Press 
     781    2.9627128   -3.7565026            0   0.68645566    11.403722 
     782    2.9681126   -3.7647028            0   0.68635297    11.378449 
Loop time of 0.0169539 on 1 procs for 1 steps with 4000 atoms

184.3% CPU use with 1 MPI tasks x no OpenMP threads
run 1 pre no post no
Step Temp E_pair E_mol TotEng Press 
     782    2.9681126   -3.7647028            0   0.68635297    11.378449 
     783    2.9697174   -3.7671229            0   0.68633947    11.372358 
Loop time of 0.0159571 on 1 procs for 1 steps with 4000 atoms

97.9% CPU use with 1 MPI tasks x no OpenMP threads
run 1 pre no post no
Step Temp E_pair E_mol TotEng Press 
     783    2.9697174   -3.7671229            0   0.68633947    11.372358 
     784    2.9665494   -3.7619994            0   0.68671226    11.391017 
Loop time of 0.0169542 on 1 procs for 1 steps with 4000 atoms

184.3% CPU use with 1 MPI tasks x no OpenMP threads
run 1 pre no post no
Step Temp E_pair E_mol TotEng Press 
     784    2.9665494   -3.7619994            0   0.68671226    11.391017 
     785      2.96032   -3.7518935            0   0.68747642    11.426195 
Loop time of 0.0154672 on 1 procs for 1 steps with 4000 atoms

303.1% CPU use with 1 MPI tasks x no OpenMP threads
run 1 pre no post no
Step Temp E_pair E_mol TotEng Press 
     785      2.96032   -3.7518935            0   0.68747642    11.426195 
     786    2.9550664   -3.7436724            0   0.68781902    11.456738 
Loop time of 0.017952 on 1 procs for 1 steps with 4000 atoms

87.0% CPU use with 1 MPI tasks x no OpenMP threads
run 1 pre no post no
Step Temp E_pair E_mol TotEng Press 
     786    2.9550664   -3.7436724            0   0.68781902    11.456738 
     787    2.9536717   -3.7417109            0   0.68768894    11.468131 
Loop time of 0.0179508 on 1 procs for 1 steps with 4000 atoms

87.0% CPU use with 1 MPI tasks x no OpenMP threads
run 1 pre no post no
Step Temp E_pair E_mol TotEng Press 
     787    2.9536717   -3.7417109            0   0.68768894    11.468131 
     788    2.9549111   -3.7441829            0    0.6870756     11.46569 
Loop time of 0.016953 on 1 procs for 1 steps with 4000 atoms

92.2% CPU use with 1 MPI tasks x no OpenMP threads
run 1 pre no post no
Step Temp E_pair E_mol TotEng Press 
     788    2.9549111   -3.7441829            0    0.6870756     11.46569 
     789    2.9545453   -3.7439751            0   0.68673485    11.470813 
Loop time of 0.0224459 on 1 procs for 1 steps with 4000 atoms

139.2% CPU use with 1 MPI tasks x no OpenMP threads
run 1 pre no post no
Step Temp E_pair E_mol TotEng Press 
     789    2.9545453   -3.7439751            0   0.68673485    11.470813 
     790    2.9500217   -3.7369254            0   0.68700096    11.495994 
Loop time of 0.0159569 on 1 procs for 1 steps with 4000 atoms

195.8% CPU use with 1 MPI tasks x no OpenMP threads
run 1 pre no post no
Step Temp E_pair E_mol TotEng Press 
     790    2.9500217   -3.7369254            0   0.68700096    11.495994 
     791    2.9433781   -3.7265961            0   0.68736731    11.530085 
Loop time of 0.0169542 on 1 procs for 1 steps with 4000 atoms

92.2% CPU use with 1 MPI tasks x no OpenMP threads
run 1 pre no post no
Step Temp E_pair E_mol TotEng Press 
     791    2.9433781   -3.7265961            0   0.68736731    11.530085 
     792    2.9392731   -3.7199557            0   0.68785174     11.55047 
Loop time of 0.0169551 on 1 procs for 1 steps with 4000 atoms

184.3% CPU use with 1 MPI tasks x no OpenMP threads
run 1 pre no post no
Step Temp E_pair E_mol TotEng Press 
     792    2.9392731   -3.7199557            0   0.68785174     11.55047 
     793    2.9404583   -3.7217546            0   0.68783026    11.542566 
Loop time of 0.0159559 on 1 procs for 1 steps with 4000 atoms

293.8% CPU use with 1 MPI tasks x no OpenMP threads
run 1 pre no post no
Step Temp E_pair E_mol TotEng Press 
     793    2.9404583   -3.7217546            0   0.68783026    11.542566 
     794    2.9448352   -3.7284926            0   0.68765588     11.51762 
Loop time of 0.0159569 on 1 procs for 1 steps with 4000 atoms

97.9% CPU use with 1 MPI tasks x no OpenMP threads
run 1 pre no post no
Step Temp E_pair E_mol TotEng Press 
     794    2.9448352   -3.7284926            0   0.68765588     11.51762 
     795    2.9488829   -3.7342008            0   0.68801775    11.494531 
Loop time of 0.0159581 on 1 procs for 1 steps with 4000 atoms

391.7% CPU use with 1 MPI tasks x no OpenMP threads
run 1 pre no post no
Step Temp E_pair E_mol TotEng Press 
     795    2.9488829   -3.7342008            0   0.68801775    11.494531 
     796    2.9519977   -3.7384561            0   0.68843342    11.475558 
Loop time of 0.0159829 on 1 procs for 1 steps with 4000 atoms

97.8% CPU use with 1 MPI tasks x no OpenMP threads
run 1 pre no post no
Step Temp E_pair E_mol TotEng Press 
     796    2.9519977   -3.7384561            0   0.68843342    11.475558 
     797    2.9550913   -3.7426389            0   0.68888984    11.456735 
Loop time of 0.0159581 on 1 procs for 1 steps with 4000 atoms

195.8% CPU use with 1 MPI tasks x no OpenMP threads
run 1 pre no post no
Step Temp E_pair E_mol TotEng Press 
     797    2.9550913   -3.7426389            0   0.68888984    11.456735 
     798    2.9579996   -3.7466444            0   0.68924581     11.43893 
Loop time of 0.0169549 on 1 procs for 1 steps with 4000 atoms

92.2% CPU use with 1 MPI tasks x no OpenMP threads
run 1 pre no post no
Step Temp E_pair E_mol TotEng Press 
     798    2.9579996   -3.7466444            0   0.68924581     11.43893 
     799    2.9592406   -3.7478334            0   0.68991787    11.430177 
Loop time of 0.0159278 on 1 procs for 1 steps with 4000 atoms

98.1% CPU use with 1 MPI tasks x no OpenMP threads
run 1 pre no post no
Step Temp E_pair E_mol TotEng Press 
     799    2.9592406   -3.7478334            0   0.68991787    11.430177 
     800    2.9582901   -3.7506328            0   0.68569301    11.424432 
Loop time of 0.0269279 on 1 procs for 1 steps with 4000 atoms

232.1% CPU use with 1 MPI tasks x no OpenMP threads
run 1 pre no post no
Step Temp E_pair E_mol TotEng Press 
     800    2.9582901   -3.7506328            0   0.68569301    11.424432 
     801    2.9567746   -3.7479819            0    0.6860712    11.429682 
Loop time of 0.0159571 on 1 procs for 1 steps with 4000 atoms

97.9% CPU use with 1 MPI tasks x no OpenMP threads
run 1 pre no post no
Step Temp E_pair E_mol TotEng Press 
     801    2.9567746   -3.7479819            0    0.6860712    11.429682 
     802    2.9568065    -3.747819            0   0.68628195     11.42771 
Loop time of 0.0159581 on 1 procs for 1 steps with 4000 atoms

97.9% CPU use with 1 MPI tasks x no OpenMP threads
run 1 pre no post no
Step Temp E_pair E_mol TotEng Press 
     802    2.9568065    -3.747819            0   0.68628195     11.42771 
     803    2.9589168   -3.7510264            0   0.68623919    11.415988 
Loop time of 0.0159571 on 1 procs for 1 steps with 4000 atoms

97.9% CPU use with 1 MPI tasks x no OpenMP threads
run 1 pre no post no
Step Temp E_pair E_mol TotEng Press 
     803    2.9589168   -3.7510264            0   0.68623919    11.415988 
     804    2.9609669   -3.7546508            0   0.68568916    11.404613 
Loop time of 0.0159578 on 1 procs for 1 steps with 4000 atoms

0.0% CPU use with 1 MPI tasks x no OpenMP threads
run 1 pre no post no
Step Temp E_pair E_mol TotEng Press 
     804    2.9609669   -3.7546508            0   0.68568916    11.404613 
     805    2.9597187   -3.7529607            0   0.68550741    11.410872 
Loop time of 0.015985 on 1 procs for 1 steps with 4000 atoms

97.7% CPU use with 1 MPI tasks x no OpenMP threads
run 1 pre no post no
Step Temp E_pair E_mol TotEng Press 
     805    2.9597187   -3.7529607            0   0.68550741    11.410872 
     806     2.953818   -3.7441399            0   0.68547941    11.440755 
Loop time of 0.015929 on 1 procs for 1 steps with 4000 atoms

98.1% CPU use with 1 MPI tasks x no OpenMP threads
run 1 pre no post no
Step Temp E_pair E_mol TotEng Press 
     806     2.953818   -3.7441399            0   0.68547941    11.440755 
     807    2.9448357   -3.7303204            0   0.68582894    11.486762 
Loop time of 0.0159571 on 1 procs for 1 steps with 4000 atoms

97.9% CPU use with 1 MPI tasks x no OpenMP threads
run 1 pre no post no
Step Temp E_pair E_mol TotEng Press 
     807    2.9448357   -3.7303204            0   0.68582894    11.486762 
     808    2.9358627   -3.7165742            0   0.68611895    11.532428 
Loop time of 0.0159578 on 1 procs for 1 steps with 4000 atoms

293.7% CPU use with 1 MPI tasks x no OpenMP threads
run 1 pre no post no
Step Temp E_pair E_mol TotEng Press 
     808    2.9358627   -3.7165742            0   0.68611895    11.532428 
     809    2.9289825   -3.7062781            0   0.68609735    11.566716 
Loop time of 0.0159571 on 1 procs for 1 steps with 4000 atoms

97.9% CPU use with 1 MPI tasks x no OpenMP threads
run 1 pre no post no
Step Temp E_pair E_mol TotEng Press 
     809    2.9289825   -3.7062781            0   0.68609735    11.566716 
     810      2.92571   -3.7008854            0   0.68658239    11.583291 
Loop time of 0.0159571 on 1 procs for 1 steps with 4000 atoms

97.9% CPU use with 1 MPI tasks x no OpenMP threads
run 1 pre no post no
Step Temp E_pair E_mol TotEng Press 
     810      2.92571   -3.7008854            0   0.68658239    11.583291 
     811    2.9278494   -3.7041608            0   0.68651537    11.570811 
Loop time of 0.0159581 on 1 procs for 1 steps with 4000 atoms

97.9% CPU use with 1 MPI tasks x no OpenMP threads
run 1 pre no post no
Step Temp E_pair E_mol TotEng Press 
     811    2.9278494   -3.7041608            0   0.68651537    11.570811 
     812    2.9349717   -3.7150799            0   0.68627712     11.53178 
Loop time of 0.0159569 on 1 procs for 1 steps with 4000 atoms

195.8% CPU use with 1 MPI tasks x no OpenMP threads
run 1 pre no post no
Step Temp E_pair E_mol TotEng Press 
     812    2.9349717   -3.7150799            0   0.68627712     11.53178 
     813    2.9438297   -3.7283326            0   0.68630799    11.483148 
Loop time of 0.0159559 on 1 procs for 1 steps with 4000 atoms

97.9% CPU use with 1 MPI tasks x no OpenMP threads
Total wall time: 0:00:18
