ITEM: TIMESTEP
0
ITEM: NUMBER OF ATOMS
1359
ITEM: BOX BOUNDS pp pp pp
0.0000000000000000e+000 4.7090000000000003e+001
0.0000000000000000e+000 4.5570000000000000e+001
0.0000000000000000e+000 1.0000000000000000e+002
ITEM: ATOMS id type q x y z c_pe c_ke v_temp 
1 5 1.39082 47.0897 0.8825 51.7553 -29.0874 24.6892 8282.71 
2 5 1.55054 0.4764 8.9113 51.3432 -17.5221 21.2373 7124.69 
3 5 1.61963 46.4656 16.3249 52.3673 -8.28886 9.5394 3200.27 
4 5 1.38502 0.3411 23.7199 51.2718 -39.0013 4.65865 1562.88 
5 5 1.5541 46.7514 31.2376 51.5058 -5.82945 7.11639 2387.4 
6 5 1.43682 46.9941 38.7195 51.5115 -15.6874 15.3179 5138.85 
7 5 1.58295 7.7679 0.6921 51.1909 8.53982 12.3859 4155.2 
8 5 1.43123 8.2942 8.1669 51.6577 -13.5323 9.7248 3262.47 
9 5 1.4724 8.1567 16.0945 51.9371 -24.2706 5.84933 1962.33 
10 5 1.50506 8.0939 23.8631 51.4749 -8.49104 9.55919 3206.91 
11 5 1.5206 7.6246 31.4682 51.3021 1.32983 8.38301 2812.33 
12 5 1.41192 8.0697 39.1021 51.3913 -36.3179 16.4765 5527.54 
13 5 1.49715 16.0261 0.5315 51.529 -21.6425 12.7467 4276.24 
14 5 1.3093 15.8137 8.8167 50.958 -17.9302 31.7423 10648.9 
15 5 1.31047 16.8118 15.8519 50.9349 -49.5229 3.94293 1322.77 
16 5 1.51662 15.5544 23.9086 52.1191 -30.4516 10.7579 3609.05 
17 5 1.50511 15.6253 31.2343 51.652 -14.7452 7.0935 2379.73 
18 5 1.39396 15.2312 38.6852 51.739 -35.1604 7.10844 2384.74 
19 5 1.62778 23.6255 0.9724 51.895 9.06557 7.00746 2350.86 
20 5 1.46276 23.9723 8.0193 51.5486 -31.0833 6.75746 2266.99 
21 5 1.48193 23.6332 15.8939 51.8391 -4.52378 10.9348 3668.42 
22 5 1.50039 23.7721 24.4479 51.4452 -25.045 10.3167 3461.05 
23 5 1.45955 23.5669 31.4163 51.0042 -15.5294 21.806 7315.47 
24 5 1.54285 23.7903 38.94 51.3705 -25.5278 10.7641 3611.14 
25 5 1.3912 31.7452 0.8137 50.7634 -42.291 35.6231 11950.8 
26 5 1.48966 32.0706 8.2098 52.0405 -0.569684 11.2287 3767.01 
27 5 1.40765 31.9321 16.6234 51.0505 -31.8602 9.93866 3334.22 
28 5 1.5482 31.4181 23.7955 51.7423 -9.27959 10.7133 3594.08 
29 5 1.42713 31.5122 31.2561 50.8869 -15.292 39.2591 13170.6 
30 5 1.53064 31.0668 38.9772 51.4735 -29.7491 16.1989 5434.41 
31 5 1.53857 39.9195 0.6643 51.5513 -4.9369 8.20133 2751.38 
32 5 1.60503 39.7507 8.8853 51.6442 5.32988 10.8964 3655.52 
33 5 1.48996 39.7267 16.6306 51.8465 -3.63587 13.9606 4683.5 
34 5 1.53443 39.1362 23.9919 51.8497 -28.5581 19.6761 6600.94 
35 5 1.55111 39.2739 31.0941 52.0231 -1.48719 11.4794 3851.12 
36 5 1.53292 39.1581 39.0032 51.9451 4.34225 17.0454 5718.4 
37 5 1.38297 46.1145 5.5945 50.8369 -36.5323 7.77202 2607.35 
38 5 1.4663 46.8685 12.6774 52.2974 -22.6666 6.85034 2298.15 
39 5 1.46512 0.8081 19.6924 51.4407 -20.116 22.2171 7453.39 
40 5 1.48081 0.1745 27.7863 51.2051 -11.5349 2.25151 755.336 
41 5 1.52577 46.7695 35.234 51.8284 17.0228 23.4463 7865.75 
42 5 1.51329 0.6083 42.1798 51.8123 -22.049 16.8989 5669.23 
43 5 1.3948 7.924 4.6883 51.2066 -36.0246 29.9048 10032.5 
44 5 1.42383 8.1884 12.1589 51.0315 -12.9306 6.48566 2175.81 
45 5 1.42583 7.8046 19.8531 51.1959 -35.9601 0.917411 307.773 
46 5 1.49306 8.0051 27.5724 51.4964 -11.0888 7.62991 2559.68 
47 5 1.53926 7.8163 35.4913 51.8106 -5.42239 18.0345 6050.22 
48 5 1.49743 8.3969 42.4484 51.1601 -15.5613 6.7898 2277.84 
49 5 1.41528 15.7303 4.3908 51.1057 -33.189 3.0337 1017.75 
50 5 1.42572 16.2365 12.8157 51.6285 -49.5384 8.46296 2839.15 
51 5 1.45543 15.9326 19.7952 51.7493 -29.6802 10.3268 3464.44 
52 5 1.51178 15.6359 27.6363 52.1922 -7.30796 3.00068 1006.67 
53 5 1.56133 15.8353 34.4569 51.701 -3.52637 9.79093 3284.66 
54 5 1.48154 15.7939 42.5076 52.0131 -18.1059 16.657 5588.1 
55 5 1.5143 23.5938 4.6193 51.7304 24.9054 16.9202 5676.37 
56 5 1.39577 24.1492 12.8181 51.0952 -33.54 21.9618 7367.74 
57 5 1.53065 23.9755 20.0208 51.6665 -20.0769 18.027 6047.7 
58 5 1.41668 23.1958 27.8072 51.3157 -22.796 3.12525 1048.46 
59 5 1.45217 23.453 35.2851 51.428 -15.5717 14.6419 4912.07 
60 5 1.48731 23.8763 42.8067 51.4484 -20.9926 11.8794 3985.3 
61 5 1.58082 32.2426 4.2711 51.8143 -1.81849 8.37699 2810.31 
62 5 1.44019 30.9694 12.7855 51.6839 -15.7717 12.8575 4313.44 
63 5 1.46518 31.6292 19.6975 51.6684 -9.68616 6.419 2153.44 
64 5 1.52058 30.6264 27.3917 51.6192 -16.667 0.535896 179.782 
65 5 1.4717 31.2534 35.2159 51.1007 -2.51391 13.2957 4460.45 
66 5 1.50353 31.7192 42.8686 51.8166 -9.3923 6.04607 2028.34 
67 5 1.48472 39.5146 4.7158 52.0652 -7.97472 5.24172 1758.49 
68 5 1.55793 39.6946 12.699 51.5727 -13.2355 7.14084 2395.61 
69 5 1.29899 39.5129 19.904 50.9112 -52.7595 15.2774 5125.27 
70 5 1.59966 39.4021 27.4589 51.7101 19.8636 34.4315 11551.1 
71 5 1.44009 39.295 34.9989 51.6951 -12.464 2.24907 754.517 
72 5 1.48141 39.709 42.613 52.2066 -8.45361 22.1896 7444.16 
73 5 1.54104 3.8991 0.8188 51.4207 -20.1728 8.68852 2914.82 
74 5 1.47395 4.3606 8.1886 50.521 -15.2037 16.0776 5393.7 
75 5 1.38185 4.9555 16.7736 50.638 -46.0002 6.79153 2278.42 
76 5 1.48081 4.2091 23.7763 51.098 -24.6488 9.05185 3036.71 
77 5 1.45553 3.6114 31.1921 51.2528 -23.7922 23.3985 7849.71 
78 5 1.52863 3.991 38.6517 51.5155 -11.6602 3.57031 1197.77 
79 5 1.42949 11.7157 0.7367 51.2752 -18.0598 22.2297 7457.61 
80 5 1.46632 11.8615 8.4119 51.8095 -31.3422 6.01026 2016.32 
81 5 1.42659 12.0153 16.3158 50.888 -19.5282 15.9831 5362 
82 5 1.54064 11.7936 23.6423 51.6227 -11.1598 29.8353 10009.1 
83 5 1.5948 11.7326 31.3571 51.2346 -7.70149 7.08955 2378.4 
84 5 1.46592 11.1723 39.0735 51.4645 -20.7639 26.9682 9047.27 
85 5 1.45421 19.6211 0.3203 51.988 -8.15792 23.1892 7779.49 
86 5 1.41529 20.2401 8.5177 51.6816 -25.0086 20.3859 6839.07 
87 5 1.442 19.8151 16.1864 51.9553 -9.45858 30.7354 10311.1 
88 5 1.4745 19.8303 23.5345 51.7709 -8.99032 9.25157 3103.71 
89 5 1.42096 19.619 31.0552 51.2228 -29.7233 37.1065 12448.5 
90 5 1.45562 19.7179 39.022 51.8003 -26.846 25.1313 8431.03 
91 5 1.47794 27.4748 0.6339 51.3896 -16.4389 2.47983 831.931 
92 5 1.49122 28.0057 8.5143 51.3554 -25.6421 4.53973 1522.99 
93 5 1.48749 27.384 16.2731 51.3408 -21.6147 13.9197 4669.77 
94 5 1.41715 27.6099 23.5136 51.4611 -29.8866 13.9597 4683.2 
95 5 1.42284 27.4133 30.9373 51.2332 -9.77937 4.72406 1584.82 
96 5 1.43184 27.2026 38.5106 51.1947 -31.1887 14.2863 4792.77 
97 5 1.54565 36.2341 0.8203 51.7308 -21.1749 3.84923 1291.34 
98 5 1.36794 35.6633 8.6146 51.1586 -49.0761 16.5056 5537.29 
99 5 1.54784 35.5943 16.0042 51.7939 -22.2076 10.2829 3449.7 
100 5 1.51962 35.1556 23.8733 51.3658 -3.97909 19.0933 6405.41 
101 5 1.48903 35.3262 31.51 51.6523 -21.5307 11.3573 3810.13 
102 5 1.55956 34.9413 39.3225 51.1907 -1.54965 15.9317 5344.77 
103 5 1.33119 43.734 0.1454 51.7326 -26.1013 5.61835 1884.84 
104 5 1.57702 43.6422 8.3042 51.6649 -0.720453 1.97463 662.448 
105 5 1.40661 42.7644 16.2995 51.0493 -40.1836 50.4911 16938.7 
106 5 1.56522 43.8237 23.2296 51.7407 -12.2017 2.21206 742.102 
107 5 1.54247 42.9093 30.838 50.7143 -3.628 8.12163 2724.64 
108 5 1.35022 43.8141 38.8372 51.3454 -30.3997 12.6804 4254.02 
109 5 1.44838 4.0515 4.4767 51.4006 -15.2398 28.49 9557.82 
110 5 1.46011 4.6945 11.8717 51.0422 -23.5294 3.82072 1281.77 
111 5 1.42479 4.4289 19.9135 51.062 -32.9258 17.2081 5772.96 
112 5 1.63637 3.936 27.3612 51.1803 -2.38715 12.166 4081.43 
113 5 1.48423 3.8862 34.946 51.2493 13.647 2.22922 747.859 
114 5 1.46079 4.2829 42.4479 50.7219 -5.58798 4.01232 1346.05 
115 5 1.55108 11.9764 4.605 51.4188 5.90543 12.8427 4308.48 
116 5 1.52746 12.0608 12.448 51.9176 -15.6917 8.79698 2951.21 
117 5 1.48386 12.0104 20.0943 51.1787 -41.6224 7.50267 2516.99 
118 5 1.4543 11.8477 27.7321 51.3409 -19.8061 4.66858 1566.21 
119 5 1.58025 11.6442 35.1794 51.4143 -16.373 4.59539 1541.66 
120 5 1.52095 12.2447 42.7104 51.3676 -23.5041 10.4901 3519.2 
121 5 1.46778 19.9106 5.257 51.5076 -16.3758 27.9748 9384.98 
122 5 1.38275 19.4923 12.6607 51.5716 -42.1483 13.0366 4373.51 
123 5 1.41928 19.3214 19.9788 51.6838 -7.19279 1.06047 355.766 
124 5 1.41858 19.9481 27.0947 51.7138 -26.8292 14.7399 4944.93 
125 5 1.38941 19.5246 35.5617 52.0997 2.35325 3.75972 1261.31 
126 5 1.45554 19.6039 42.6066 52.178 -27.3663 24.3016 8152.69 
127 5 1.29421 27.7485 4.5584 51.0944 -26.4966 8.79448 2950.37 
128 5 1.33991 27.4647 12.313 51.1384 -37.5576 2.96698 995.361 
129 5 1.41193 27.7754 19.5793 51.1855 -26.8191 11.5359 3870.07 
130 5 1.46854 26.9226 27.8882 51.8215 -14.175 33.1278 11113.7 
131 5 1.48973 27.153 34.812 51.0928 15.5502 14.7325 4942.46 
132 5 1.48808 27.7386 42.4735 51.3493 -19.7022 5.68091 1905.83 
133 5 1.47277 36.1429 4.8175 51.4863 -21.5271 4.95777 1663.23 
134 5 1.52416 35.8733 12.2118 51.2646 -21.5415 6.86061 2301.6 
135 5 1.36154 35.2321 19.9464 51.4085 -30.6747 8.07133 2707.77 
136 5 1.38868 35.5557 27.4884 51.118 -40.2297 9.48355 3181.54 
137 5 1.45545 35.1871 35.0996 51.4923 -33.8841 23.8601 8004.56 
138 5 1.52146 35.6797 42.5064 51.5101 -12.0776 7.03548 2360.26 
139 5 1.40909 43.1679 4.784 51.8495 -34.473 6.3639 2134.96 
140 5 1.35325 43.6773 12.0723 50.8337 -40.1937 7.93462 2661.9 
141 5 1.42328 42.6112 19.5799 51.7315 -41.6562 16.6892 5598.9 
142 5 1.53914 43.412 26.9334 51.4564 -21.0348 17.3612 5824.33 
143 5 1.47452 43.0982 34.8273 51.0807 -21.728 11.0047 3691.85 
144 5 1.43327 43.8424 42.4121 51.6064 -33.92 12.9989 4360.88 
145 5 1.5123 3.6559 2.893 48.2148 -10.7966 6.99581 2346.95 
146 5 1.3606 4.0265 10.918 48.2659 -33.7152 26.9256 9032.98 
147 5 1.49879 3.8087 18.1037 48.0805 -19.9734 15.3625 5153.8 
148 5 1.51195 3.7593 25.8313 48.2866 -23.4554 1.80205 604.552 
149 5 1.34729 3.3741 33.6473 48.6311 -19.4553 37.2874 12509.2 
150 5 1.46308 2.8764 40.9456 48.5163 -13.7084 8.28674 2780.03 
151 5 1.53953 11.4513 2.7598 48.6215 -25.8325 5.08282 1705.18 
152 5 1.48418 12.0345 10.2987 48.9368 -32.2455 2.49768 837.921 
153 5 1.38024 11.6637 17.5723 48.2033 -29.5121 15.4626 5187.38 
154 5 1.46198 11.5569 25.3915 48.8278 -15.9064 7.15285 2399.64 
155 5 1.50192 11.5021 33.1389 48.1172 4.27373 18.4996 6206.23 
156 5 1.49013 12.5437 40.5108 48.4603 -17.9915 1.48316 497.572 
157 5 1.49306 19.7735 3.4896 47.7276 -17.7252 9.17257 3077.21 
158 5 1.46363 19.2077 10.4114 49.329 -26.837 13.9114 4666.99 
159 5 1.52011 18.5768 18.1287 49.1763 -6.22936 5.20699 1746.84 
160 5 1.54696 19.5621 25.3708 48.7564 -20.462 26.5609 8910.65 
161 5 1.48913 19.5281 33.1796 48.9429 -6.50618 6.2175 2085.85 
162 5 1.5294 19.6035 40.3417 48.8781 -24.3115 8.23479 2762.61 
163 5 1.48863 27.0111 2.8545 48.7986 -8.78296 17.1713 5760.61 
164 5 1.48957 27.1111 10.2762 48.653 -5.75227 8.55053 2868.53 
165 5 1.40657 26.4869 18.1839 48.6196 -30.1321 2.58046 865.69 
166 5 1.48053 27.3013 25.835 48.9423 -13.1822 4.58368 1537.73 
167 5 1.55143 27.5611 33.3325 48.1745 -15.0863 21.2758 7137.61 
168 5 1.4366 27.1166 40.8231 48.5771 -23.7372 4.25936 1428.93 
169 5 1.47792 35.6352 2.7116 48.9406 2.35259 29.7864 9992.74 
170 5 1.45662 34.665 10.4847 48.7333 -26.3657 22.7812 7642.62 
171 5 1.4897 35.2981 17.954 48.944 -7.05446 0.149861 50.2752 
172 5 1.38837 34.6663 25.3928 48.2094 -38.8614 7.34217 2463.15 
173 5 1.56564 35.3111 33.3872 48.4982 -12.6529 12.696 4259.26 
174 5 1.51961 34.4709 41.1601 48.3539 -29.9631 10.9484 3672.96 
175 5 1.46969 43.0562 2.5503 48.5871 -15.0184 23.2516 7800.44 
176 5 1.51854 43.115 10.344 48.2823 -3.6576 23.9191 8024.38 
177 5 1.56331 43.2229 18.1357 48.2507 2.36607 15.7949 5298.86 
178 5 1.44145 43.4587 25.6586 48.287 -15.9333 11.7699 3948.55 
179 5 1.47175 42.9598 33.468 48.2242 -41.031 7.74488 2598.25 
180 5 1.41847 43.127 40.6853 48.7964 -19.3915 8.69747 2917.82 
181 5 1.44427 3.7523 6.2421 47.902 -1.63025 7.84594 2632.16 
182 5 1.48554 3.1873 14.4958 48.2081 -11.9271 8.64174 2899.13 
183 5 1.39027 3.5883 21.8219 48.6974 -50.2543 1.05989 355.572 
184 5 1.42695 4.4739 29.4223 48.4439 -14.5541 6.96914 2338 
185 5 1.5904 2.9262 37.0192 48.2014 -14.5542 16.9202 5676.39 
186 5 1.42354 3.4343 44.7258 48.5278 -29.9081 16.9083 5672.38 
187 5 1.52703 11.4953 6.8102 48.6902 -19.6308 2.16719 727.049 
188 5 1.48571 10.9639 13.7426 48.7649 -13.4915 6.12422 2054.55 
189 5 1.48511 11.6073 21.7626 48.3816 -31.7617 1.2454 417.806 
190 5 1.53435 11.5639 29.325 48.0604 -16.3253 11.936 4004.3 
191 5 1.50803 12.1178 36.7807 48.5319 -8.01854 13.9405 4676.74 
192 5 1.44147 11.4735 44.2996 48.7242 -21.8597 5.22708 1753.58 
193 5 1.4834 19.8302 6.8748 48.4109 -21.2788 6.36338 2134.78 
194 5 1.42308 18.5585 13.9252 48.6781 -20.8843 10.1413 3402.19 
195 5 1.5248 19.4706 21.9119 48.3181 -1.35442 4.3468 1458.26 
196 5 1.54743 19.3629 29.128 48.7523 -10.1415 0.0870389 29.1998 
197 5 1.53682 19.4918 37.0481 48.208 -7.76599 0.219456 73.6232 
198 5 1.54512 19.6452 44.5051 48.7655 -8.96923 52.2671 17534.6 
199 5 1.50318 27.5369 6.7032 48.5086 -8.52414 2.89071 969.775 
200 5 1.44237 27.3566 14.2159 48.5358 -33.23 1.79352 601.689 
201 5 1.48235 26.852 21.7062 48.7527 -19.8729 16.0449 5382.72 
202 5 1.5508 27.0844 29.4288 48.2326 -4.3244 31.3654 10522.4 
203 5 1.43846 27.5733 36.7083 48.318 -29.7179 12.4273 4169.12 
204 5 1.56428 27.4482 44.6594 48.4773 0.864431 4.30196 1443.22 
205 5 1.44415 35.2162 6.6669 48.8119 -24.9534 5.83652 1958.03 
206 5 1.47322 35.3439 14.3066 48.676 -2.14248 3.02635 1015.28 
207 5 1.4619 34.8699 21.5853 48.3876 -15.128 15.092 5063.05 
208 5 1.5239 35.265 29.5849 48.5709 -1.32764 12.3089 4129.39 
209 5 1.55882 35.1918 37.0967 48.7949 -11.7666 6.98498 2343.32 
210 5 1.39787 34.8938 44.5238 48.8387 -35.1226 6.38037 2140.48 
211 5 1.54125 43.2298 6.6715 48.8247 4.20554 6.10083 2046.7 
212 5 1.47346 43.1277 14.295 48.3359 -25.4508 1.81616 609.286 
213 5 1.47395 43.562 21.6011 48.9015 -38.9808 15.0696 5055.55 
214 5 1.53721 42.8764 29.4902 47.7863 8.29184 13.4187 4501.71 
215 5 1.47331 42.749 37.3851 48.6817 -37.749 6.15626 2065.3 
216 5 1.54864 42.995 44.6863 48.8376 -16.359 3.55541 1192.77 
217 5 1.45893 7.4891 2.7369 48.6469 -16.2187 15.1503 5082.61 
218 5 1.40447 7.6558 10.5678 48.5288 -31.9149 16.9423 5683.79 
219 5 1.3587 7.4577 17.9421 48.9956 -12.567 6.36597 2135.65 
220 5 1.49556 7.7673 25.7406 48.6045 -10.2428 4.78947 1606.77 
221 5 1.48108 7.393 33.5685 48.7301 -1.08016 3.40263 1141.51 
222 5 1.50435 7.0706 40.7379 47.922 -8.13519 2.80348 940.509 
223 5 1.46663 16.0051 2.4786 48.5051 -26.806 7.05555 2366.99 
224 5 1.43472 15.9148 10.338 48.5383 -32.7803 7.41865 2488.81 
225 5 1.40017 15.0479 17.8027 48.9701 -20.4995 6.95014 2331.63 
226 5 1.42686 15.7582 25.0228 49.0176 -20.9952 2.90598 974.896 
227 5 1.51871 15.5113 32.906 48.2409 -30.486 2.53995 852.1 
228 5 1.41047 15.766 40.9094 49.2723 -34.409 6.47447 2172.05 
229 5 1.47327 23.1755 3.0616 48.9486 -42.3892 2.13604 716.597 
230 5 1.52078 23.115 10.0847 48.6472 -20.5617 18.4906 6203.22 
231 5 1.52277 22.5888 18.2857 48.5097 0.904625 2.42945 815.03 
232 5 1.52886 23.3461 25.6509 48.3579 -14.9152 3.51748 1180.04 
233 5 1.41378 23.1414 33.3208 48.2255 -3.38054 15.4835 5194.4 
234 5 1.5666 23.3929 40.9218 48.325 -7.19269 7.00187 2348.98 
235 5 1.52658 31.1929 2.9494 48.1429 -11.6984 13.7687 4619.11 
236 5 1.5282 31.1283 10.5109 48.7719 -7.47271 8.44795 2834.11 
237 5 1.49704 31.711 18.5877 48.111 -25.2848 12.2398 4106.19 
238 5 1.50799 30.9521 25.7621 48.5125 -24.2217 16.7473 5618.36 
239 5 1.51935 31.4249 33.303 48.281 -14.5359 11.193 3755.02 
240 5 1.4719 31.0899 41.173 49.1779 -27.447 5.82976 1955.77 
241 5 1.53663 38.7466 3.2868 47.8317 -13.9522 23.0585 7735.65 
242 5 1.48597 39.3738 10.6072 48.5523 -7.15955 7.25774 2434.83 
243 5 1.46265 38.9468 18.0622 48.3798 -29.9202 3.8712 1298.71 
244 5 1.53601 39.8574 25.7495 48.6954 -21.6854 13.2046 4429.87 
245 5 1.46319 38.792 33.0886 49.1133 -21.2482 3.40246 1141.46 
246 5 1.49738 39.3609 40.5339 48.9369 5.04334 5.39749 1810.75 
247 5 1.48938 46.9169 3.054 48.3303 -20.9072 11.0853 3718.9 
248 5 1.62019 46.3531 10.9053 48.0741 -3.4384 3.48308 1168.5 
249 5 1.48456 46.922 17.7323 48.9498 -24.5723 15.3831 5160.73 
250 5 1.37367 46.9803 25.4194 48.8874 -23.5603 1.48338 497.643 
251 5 1.4756 47.0247 33.393 48.1961 -29.4818 3.01864 1012.69 
252 5 1.39221 46.5162 40.7158 48.9012 -23.4069 15.6866 5262.55 
253 5 1.40039 7.4771 6.7596 48.6809 -34.4603 18.9248 6348.9 
254 5 1.51956 7.1345 14.2957 48.7496 -13.1224 28.8109 9665.48 
255 5 1.4808 7.6553 22.1001 48.4668 -17.5183 2.17582 729.942 
256 5 1.58673 7.9319 29.8376 48.0317 -10.0262 9.3107 3123.55 
257 5 1.45316 8.1366 37.0502 47.8781 -13.0522 17.5037 5872.14 
258 5 1.54877 7.4313 44.471 48.2577 -24.0105 15.3872 5162.1 
259 5 1.36346 15.3032 6.3291 48.4985 -23.5739 11.7644 3946.7 
260 5 1.39244 15.5188 13.6911 48.4733 -37.03 10.684 3584.26 
261 5 1.51837 15.5843 21.8374 48.3655 -24.1936 3.45138 1157.87 
262 5 1.49655 15.411 29.2154 48.9268 -10.169 4.0553 1360.47 
263 5 1.51816 15.9149 37.0346 49.2506 -12.9332 8.45414 2836.19 
264 5 1.48638 15.1518 44.3319 48.7081 -18.3763 34.3841 11535.2 
265 5 1.50144 23.6428 6.4761 48.6803 2.65411 15.7173 5272.83 
266 5 1.54208 23.3312 14.088 48.3004 -20.3544 8.5024 2852.38 
267 5 1.45028 23.1961 21.6815 48.8528 -4.69424 10.6763 3581.68 
268 5 1.52806 23.4545 29.464 48.44 -26.1479 3.99622 1340.65 
269 5 1.57742 23.7261 37.1391 48.5608 13.859 22.1316 7424.7 
270 5 1.49905 23.588 44.781 48.8165 -19.4034 20.1689 6766.27 
271 5 1.52957 31.3992 6.4717 48.1997 22.1593 5.96675 2001.73 
272 5 1.41071 31.325 14.3301 48.7786 -42.3643 8.52823 2861.05 
273 5 1.48009 30.9538 21.7315 49.0251 -11.2481 5.61738 1884.52 
274 5 1.44696 31.4228 29.0858 48.7188 -30.3363 16.1787 5427.62 
275 5 1.57885 31.4031 37.2244 48.3537 -3.23615 5.66358 1900.02 
276 5 1.51735 31.4869 44.4136 48.2807 -28.1652 40.8541 13705.7 
277 5 1.55114 39.2386 6.8179 48.0785 -18.3519 9.85495 3306.14 
278 5 1.43416 39.0388 14.5502 49.143 -35.7047 3.76065 1261.62 
279 5 1.4957 39.668 22.199 48.8497 -17.4849 17.2434 5784.8 
280 5 1.4937 39.156 29.4666 48.4854 -6.19786 11.3191 3797.31 
281 5 1.60173 39.2515 36.9895 48.4602 23.2937 0.480119 161.07 
282 5 1.53768 38.9108 44.7747 48.493 -14.6991 6.44145 2160.98 
283 5 1.51559 0.0354 6.546 48.0278 -30.6303 20.3498 6826.95 
284 5 1.49614 46.4812 14.2767 49.3432 -28.8789 15.4253 5174.89 
285 5 1.49701 47.0869 21.5169 48.6165 -32.0943 9.8025 3288.54 
286 5 1.48184 46.7159 29.3514 48.2967 -8.73881 12.2193 4099.31 
287 5 1.50046 46.2942 37.0983 48.5599 -1.7902 30.6298 10275.7 
288 5 1.38156 46.602 45.3665 48.7433 -26.6685 6.79169 2278.47 
289 3 -0.467637 1.9659 0.5813 52.3453 -148.341 34.9599 11728.3 
290 3 -0.393315 1.5095 8.7497 52.6906 -111.227 21.9442 7361.85 
291 3 -0.454546 0.6823 17.4568 52.7258 -132.478 13.0051 4362.94 
292 3 -0.328627 0.5909 23.8289 53.0002 -111.164 1.11537 374.184 
293 3 -0.381648 46.7745 30.9055 53.1968 -115.59 15.4708 5190.16 
294 3 -0.390561 0.3535 37.5537 52.8741 -115.303 14.2466 4779.43 
295 3 -0.388518 7.5092 0.326 52.9048 -123.746 1.4364 481.884 
296 3 -0.293266 7.8124 8.1877 53.4137 -106.022 6.10256 2047.28 
297 3 -0.336982 8.9237 16.0868 53.5221 -114.307 4.77667 1602.48 
298 3 -0.258368 7.6809 23.7378 53.5382 -82.2918 4.44784 1492.16 
299 3 -0.344161 7.4636 30.7222 52.997 -115.206 1.07319 360.032 
300 3 -0.483328 9.0318 39.5045 52.7921 -136.596 12.7128 4264.87 
301 3 -0.318725 14.5629 1.4429 52.6085 -92.329 2.64876 888.605 
302 3 -0.341181 16.8757 8.3551 52.4121 -115.029 7.00567 2350.26 
303 3 -0.270132 15.1936 15.9811 52.3203 -79.4883 4.67992 1570.02 
304 3 -0.330038 15.5935 23.6748 53.8944 -114.765 8.72842 2928.21 
305 3 -0.506218 15.8287 32.5795 52.9247 -155.592 17.4024 5838.15 
306 3 -0.330082 15.9266 38.8495 53.404 -113.948 9.06373 3040.7 
307 3 -0.423253 23.704 1.8825 53.404 -128.562 8.55841 2871.17 
308 3 -0.491758 23.8645 6.2865 52.7185 -150.35 29.0228 9736.56 
309 3 -0.348712 22.9307 15.5995 53.4619 -117.575 10.6124 3560.26 
310 3 -0.246078 23.7815 21.5059 53.022 -77.3751 11.1095 3727.02 
311 3 -0.382052 23.1954 31.4066 52.7812 -121.637 1.45151 486.953 
312 3 -0.363021 24.4285 38.8869 53.0023 -117.463 4.27122 1432.91 
313 3 -0.472405 32.7802 1.9806 51.7423 -143.567 3.1442 1054.81 
314 3 -0.357944 32.2715 8.4494 53.7359 -111.989 20.0167 6715.19 
315 3 -0.0668328 32.1856 18.3452 61.2317 -71.8709 25.1051 8422.26 
316 3 -0.344902 31.1386 23.5322 53.455 -114.935 28.415 9532.67 
317 3 -0.283225 32.1149 31.2424 52.6914 -102.019 0.700228 234.912 
318 3 -0.352456 31.1218 38.652 53.3053 -114.042 23.443 7864.65 
319 3 -0.508989 40.2991 44.6813 52.562 -154.743 5.77204 1936.4 
320 3 -0.366331 39.0309 9.0557 53.2221 -114.052 52.8189 17719.7 
321 3 -0.232323 39.093 16.3687 53.6497 -83.9329 10.637 3568.5 
322 3 -0.335617 39.4784 23.5706 53.5229 -113.698 13.4717 4519.48 
323 3 -0.350588 39.5319 32.3254 53.3413 -113.856 11.9366 4004.5 
324 3 -0.412402 40.0113 38.7421 53.4611 -127.768 9.2957 3118.52 
325 3 -0.591737 44.3481 6.4092 52.032 -181.379 13.2985 4461.38 
326 3 -0.312956 46.9014 12.8368 54.0904 -109.909 18.1821 6099.71 
327 3 -0.0392094 2.9471 21.1631 53.4391 -47.684 1.83575 615.856 
328 3 -0.2443 1.1188 28.6297 52.8783 -77.0166 11.0467 3705.96 
329 3 -0.536163 46.7218 33.1962 51.8184 -165.702 1.54255 517.494 
330 3 -0.37997 1.4175 41.655 53.3489 -123.736 1.90511 639.124 
331 3 -0.360527 8.0865 4.8462 52.9489 -117.472 7.63736 2562.18 
332 3 -0.45206 6.6309 11.7592 51.9972 -148.309 7.75386 2601.26 
333 3 -0.254905 8.7204 19.2402 52.8571 -83.9385 8.38567 2813.22 
334 3 -0.372509 7.7752 27.6916 53.2522 -122.386 13.1554 4413.38 
335 3 -0.425487 9.1813 34.6112 52.5377 -127.318 5.75222 1929.75 
336 3 -0.387906 8.0684 41.9404 52.8455 -123.951 27.0839 9086.09 
337 3 -0.327728 16.4473 4.784 52.7124 -114.222 24.5114 8223.08 
338 3 -0.357742 15.9301 13.0572 53.3444 -117.517 2.85667 958.354 
339 3 -0.339502 15.0408 19.3349 53.2117 -115.97 7.42533 2491.05 
340 3 -0.324987 16.3804 29.8023 53.0987 -95.4157 36.9496 12395.8 
341 3 -0.355598 16.4084 35.6077 52.9799 -115.041 4.34157 1456.51 
342 3 -0.0961354 15.5471 42.1298 57.8237 -84.9818 7.58603 2544.96 
343 3 -0.0416197 25.8499 3.7017 53.8912 -60.4696 2.29268 769.149 
344 3 -0.384097 23.3723 9.4845 52.3655 -124.078 16.2653 5456.67 
345 3 -0.390085 24.6241 19.0252 52.9045 -113.945 5.97115 2003.2 
346 3 -0.653749 24.9793 27.3484 51.2004 -188.441 31.3666 10522.9 
347 3 -0.360802 23.3259 36.0729 53.0368 -119.377 23.2566 7802.13 
348 3 -0.379066 23.7751 42.2845 53.1608 -123.652 4.25479 1427.39 
349 3 -0.316385 32.7555 3.6612 53.4902 -106.816 40.9188 13727.4 
350 3 -0.326851 31.5492 13.0657 53.3552 -113.448 3.64765 1223.71 
351 3 -0.314141 31.1456 20.4304 53.2544 -110.492 5.34846 1794.3 
352 3 -0.563996 28.9391 27.4454 52.3151 -170.968 10.5208 3529.51 
353 3 -0.341083 32.0135 34.4766 52.561 -113.867 26.7253 8965.8 
354 3 -0.37335 31.12 43.4107 53.3981 -121.603 20.5473 6893.21 
355 3 -0.360055 39.2486 4.4346 53.8543 -119.283 1.95286 655.144 
356 3 -0.364295 39.3093 12.3407 53.2247 -114.606 4.02661 1350.85 
357 3 -0.3503 38.6029 18.4894 52.3417 -104.778 3.9572 1327.56 
358 3 -0.529759 38.8428 25.9613 52.6267 -161.231 3.9574 1327.63 
359 3 -0.348195 39.1801 34.6396 53.3716 -107.078 17.2252 5778.72 
360 3 -0.321328 39.7354 42.918 54.0149 -111.047 7.51195 2520.11 
361 3 -0.395761 4.9808 0.4435 52.7584 -122.491 18.3026 6140.14 
362 3 -0.41792 6.1985 8.4318 51.7485 -131.217 9.41687 3159.17 
363 3 -0.182253 2.0801 14.7246 50.7177 -89.5377 1.70117 570.709 
364 3 -0.325649 3.8406 23.7436 52.8389 -110.048 11.4709 3848.25 
365 3 -0.36353 3.6699 30.962 53.0425 -121.235 10.7739 3614.44 
366 3 -0.520142 6.2129 38.925 51.8079 -158.998 32.1296 10778.8 
367 3 -0.166403 10.2727 3.0272 53.551 -94.0617 3.78833 1270.91 
368 3 -0.338129 12.4224 9.0591 53.3697 -115.244 10.6728 3580.52 
369 3 -0.328301 11.9863 16.3833 52.6584 -113.124 4.00859 1344.8 
370 3 -0.414249 11.0085 21.8405 52.1865 -126.135 26.8454 9006.07 
371 3 -0.379089 10.7028 31.6766 52.6529 -120.617 30.4755 10223.9 
372 3 -0.383114 11.4551 40.4621 52.7478 -115.995 1.73964 583.614 
373 3 -0.363437 20.5543 1.4173 53.1222 -117.156 23.5137 7888.36 
374 3 -0.290107 20.5797 8.6192 53.528 -102.395 1.22963 412.515 
375 3 -0.314253 19.8796 16.6303 53.7119 -110.719 27.8107 9329.92 
376 3 -0.518286 21.599 23.4546 51.7225 -149.293 12.4858 4188.72 
377 3 -0.54477 17.6906 31.1268 51.519 -167.234 2.94411 987.688 
378 3 -0.213836 20.4327 39.7601 53.6311 -102.831 6.24957 2096.61 
379 3 -0.391499 26.9575 0.424 53.0487 -120.768 3.93783 1321.06 
380 3 -0.386261 27.156 8.3566 52.8163 -102.735 1.82767 613.145 
381 3 -0.368785 27.6862 17.144 52.8595 -118.832 7.23954 2428.72 
382 3 -0.36746 27.3955 23.2311 53.1689 -118.408 11.2881 3786.92 
383 3 -0.605177 27.0256 29.6721 52.5983 -167.286 12.4161 4165.36 
384 3 -0.394046 26.927 38.1052 52.8656 -121.655 9.7309 3264.52 
385 3 -0.370764 35.1124 0.8697 53.0558 -116.957 11.5759 3883.47 
386 3 -0.362233 35.2982 8.8737 52.8402 -114.979 17.3865 5832.81 
387 3 -0.345448 36.3954 15.5561 53.2597 -107.324 1.64078 550.45 
388 3 -0.389558 34.2882 23.046 52.6692 -119.606 35.0936 11773.2 
389 3 -0.335721 34.6869 30.4815 52.9527 -114.384 12.6178 4233.03 
390 3 -0.298314 34.2506 38.8559 52.819 -99.9391 36.4066 12213.7 
391 3 -0.314424 43.4046 45.372 53.4313 -109.244 25.1455 8435.79 
392 3 -0.355368 43.1672 8.9985 53.304 -117.079 1.50043 503.363 
393 3 -0.451822 41.2777 15.5193 52.3173 -140.475 11.0487 3706.63 
394 3 -0.363004 43.1064 23.1087 53.3432 -117.4 18.2523 6123.27 
395 3 -0.514694 41.2181 31.5905 51.6323 -156.976 1.79744 603.006 
396 3 -0.0177119 44.2549 40.7459 56.6218 -58.636 27.3321 9169.38 
397 3 -0.362567 3.1592 4.8352 52.9169 -120.767 16.2549 5453.17 
398 3 -0.335721 3.6239 12.7359 52.1969 -114.078 11.293 3788.58 
399 3 -0.443919 6.0663 20.3519 52.3264 -138.456 6.97751 2340.81 
400 3 -0.712552 4.2108 25.6438 50.2489 -207.531 10.6248 3564.41 
401 3 -0.393641 4.9924 34.0243 52.4661 -117.183 2.9135 977.421 
402 3 -0.404412 4.5362 41.3578 52.156 -124.481 7.19419 2413.5 
403 3 -0.317273 12.1386 5.2123 53.2375 -100.191 17.2846 5798.62 
404 3 -0.377054 11.8519 11.765 53.4926 -116.278 2.67889 898.714 
405 3 -0.334141 12.034 19.7799 52.8684 -105.812 4.69946 1576.58 
406 3 -0.409705 11.2041 28.1105 52.9123 -123.985 2.67376 896.992 
407 3 -0.276538 12.353 35.0774 53.4393 -82.3611 5.29946 1777.86 
408 3 -0.364389 12.2584 43.2285 53.0107 -109.36 9.58041 3214.03 
409 3 -0.442123 19.0897 6.8694 52.3043 -139.438 19.0938 6405.57 
410 3 -0.54558 18.0445 11.84 52.2935 -162.983 2.23366 749.348 
411 3 -0.442314 17.8599 20.5287 52.714 -140.588 15.6338 5244.81 
412 3 -0.406865 18.9503 27.0377 53.1706 -127.277 3.81451 1279.69 
413 3 -0.295034 20.0838 36.0618 53.9682 -98.0678 4.1697 1398.85 
414 3 -0.264577 20.3217 41.1038 53.5534 -119.555 5.99626 2011.62 
415 3 -0.410249 28.6381 4.3549 52.5958 -126.636 23.5484 7900 
416 3 -0.509555 25.9536 12.5472 52.1735 -159.332 7.37828 2475.26 
417 3 -0.269465 27.4066 19.6837 53.0049 -98.5986 8.60712 2887.51 
418 3 -0.324648 26.3311 27.1023 53.5215 -103.178 6.14978 2063.13 
419 3 -0.65357 26.6731 36.718 50.3859 -195.076 18.3171 6145.02 
420 3 -0.397716 27.1278 42.1707 52.9924 -126.72 1.69183 567.575 
421 3 -0.350382 35.7624 4.9105 53.264 -118.18 10.9339 3668.09 
422 3 -0.393279 34.864 12.1999 52.7045 -124.171 15.0394 5045.41 
423 3 -0.325548 35.9046 19.706 53.0415 -112.422 4.65493 1561.63 
424 3 -0.376848 35.5108 27.0456 52.8262 -121.14 6.08118 2040.11 
425 3 -0.336609 35.0124 35.9041 52.9953 -105.392 3.18706 1069.2 
426 3 -0.439343 35.104 41.2552 52.6919 -130.29 1.65333 554.659 
427 3 -0.423057 43.3038 3.6077 53.1594 -130.827 29.8485 10013.6 
428 3 -0.518564 44.4896 12.1035 52.399 -149.37 13.333 4472.94 
429 3 -0.349952 43.8361 19.4643 52.9814 -115.172 4.3734 1467.19 
430 3 -0.339089 43.3239 27.3646 53.1574 -111.863 30.4156 10203.8 
431 3 -0.625606 45.0857 35.3694 51.113 -178.72 4.03034 1352.1 
432 3 -0.331797 43.6246 42.6862 53.3536 -113.998 9.37756 3145.98 
433 3 -0.356896 3.9148 3.3192 46.4582 -115.295 26.0722 8746.68 
434 3 -0.440747 3.1953 11.5241 46.897 -123.493 20.3646 6831.91 
435 3 -0.375937 4.3636 18.7112 46.4389 -121.775 1.67809 562.964 
436 3 -0.384916 4.3272 25.78 46.6506 -118.751 3.83148 1285.38 
437 3 -0.509078 4.5145 31.2929 48.8698 -136.537 30.5675 10254.8 
438 3 -0.522563 2.8581 39.2131 47.8608 -161.781 17.0194 5709.65 
439 3 -0.361473 12.2601 2.8848 47.0606 -118.882 14.5351 4876.24 
440 3 -0.0767047 11.6629 12.8203 43.9133 -72.4977 5.40611 1813.64 
441 3 -0.141166 8.0627 15.6564 40.889 -104.134 6.05324 2030.74 
442 3 -0.577086 9.9469 26.0162 48.4907 -162.26 4.57431 1534.59 
443 3 -0.406428 10.5918 32.4844 46.7607 -125.036 9.94496 3336.33 
444 3 -0.369552 11.6131 39.4566 47.3196 -114.502 10.2541 3440.05 
445 3 -0.389301 20.4444 2.7293 46.3786 -106.405 10.4121 3493.06 
446 3 -0.291982 19.6666 10.4519 47.4587 -95.7277 3.68415 1235.96 
447 3 -0.327431 18.8078 17.9748 47.4182 -113.205 9.4692 3176.73 
448 3 -0.531423 17.6898 25.9354 48.6668 -161.28 5.68176 1906.11 
449 3 -0.296069 20.1222 32.0271 47.4669 -87.1323 18.9325 6351.47 
450 3 -0.540081 18.9776 39.0616 47.7044 -165.265 9.08258 3047.02 
451 3 -0.246539 26.8364 1.3947 47.2122 -102.481 14.4052 4832.65 
452 3 -0.347165 26.5119 11.0563 46.9456 -97.7725 46.7697 15690.3 
453 3 -0.360315 27.383 17.4027 47.3362 -115.322 7.35626 2467.87 
454 3 -0.534036 29.2659 25.491 48.0407 -158.999 25.0324 8397.87 
455 3 -0.351948 26.6345 32.2452 47.0262 -113.969 12.3987 4159.51 
456 3 -0.38883 27.999 40.7197 47.0364 -124.058 13.1953 4426.76 
457 3 -0.56791 36.6501 3.4083 47.6856 -155.144 5.30993 1781.37 
458 3 -0.515387 32.8765 11.3382 48.2757 -158.566 4.53922 1522.82 
459 3 -0.682086 35.2879 15.9274 49.5809 -192.59 14.093 4727.93 
460 3 -0.390654 35.6603 25.8597 46.882 -117.735 1.9913 668.039 
461 3 -0.375598 36.4601 33.476 47.1106 -121.24 3.86017 1295.01 
462 3 -0.425939 35.4065 41.4228 46.9355 -123.613 10.6387 3569.08 
463 3 -0.460342 43.0507 4.2765 48.0709 -138.428 8.54604 2867.02 
464 3 -0.685647 43.2642 12.5755 48.1496 -173.209 13.9932 4694.44 
465 3 -0.35841 41.8393 18.6311 47.0713 -114.129 5.50437 1846.6 
466 3 -0.337322 43.9961 26.7013 46.8893 -110.178 3.5524 1191.76 
467 3 -0.380063 42.9758 34.1601 46.6544 -114.309 12.2394 4106.06 
468 3 -0.474132 44.8051 40.9356 47.9181 -149.662 5.38494 1806.54 
469 3 -0.435739 4.7829 5.1156 47.0875 -119.12 31.3498 10517.2 