# ANPs_oxidation

1359 atoms
7 atom types

0.0     47.0900  xlo xhi
0.0     45.5700  ylo yhi
0.0     100.00    zlo zhi

Masses

1  12.0000   #  C
2   1.0080   #  H
3  15.9990   #  O
4  32.0600   #  S
5  95.9400   # Mo
6  58.6900   #  Ni
7  26.9820   #  Al

Atoms

    1   5  0.000     47.08970     0.88250    51.75530
    2   5  0.000      0.47640     8.91130    51.34320
    3   5  0.000     46.46560    16.32490    52.36730
    4   5  0.000      0.34110    23.71990    51.27180
    5   5  0.000     46.75140    31.23760    51.50580
    6   5  0.000     46.99410    38.71950    51.51150
    7   5  0.000      7.76790     0.69210    51.19090
    8   5  0.000      8.29420     8.16690    51.65770
    9   5  0.000      8.15670    16.09450    51.93710
   10   5  0.000      8.09390    23.86310    51.47490
   11   5  0.000      7.62460    31.46820    51.30210
   12   5  0.000      8.06970    39.10210    51.39130
   13   5  0.000     16.02610     0.53150    51.52900
   14   5  0.000     15.81370     8.81670    50.95800
   15   5  0.000     16.81180    15.85190    50.93490
   16   5  0.000     15.55440    23.90860    52.11910
   17   5  0.000     15.62530    31.23430    51.65200
   18   5  0.000     15.23120    38.68520    51.73900
   19   5  0.000     23.62550     0.97240    51.89500
   20   5  0.000     23.97230     8.01930    51.54860
   21   5  0.000     23.63320    15.89390    51.83910
   22   5  0.000     23.77210    24.44790    51.44520
   23   5  0.000     23.56690    31.41630    51.00420
   24   5  0.000     23.79030    38.94000    51.37050
   25   5  0.000     31.74520     0.81370    50.76340
   26   5  0.000     32.07060     8.20980    52.04050
   27   5  0.000     31.93210    16.62340    51.05050
   28   5  0.000     31.41810    23.79550    51.74230
   29   5  0.000     31.51220    31.25610    50.88690
   30   5  0.000     31.06680    38.97720    51.47350
   31   5  0.000     39.91950     0.66430    51.55130
   32   5  0.000     39.75070     8.88530    51.64420
   33   5  0.000     39.72670    16.63060    51.84650
   34   5  0.000     39.13620    23.99190    51.84970
   35   5  0.000     39.27390    31.09410    52.02310
   36   5  0.000     39.15810    39.00320    51.94510
   37   5  0.000     46.11450     5.59450    50.83690
   38   5  0.000     46.86850    12.67740    52.29740
   39   5  0.000      0.80810    19.69240    51.44070
   40   5  0.000      0.17450    27.78630    51.20510
   41   5  0.000     46.76950    35.23400    51.82840
   42   5  0.000      0.60830    42.17980    51.81230
   43   5  0.000      7.92400     4.68830    51.20660
   44   5  0.000      8.18840    12.15890    51.03150
   45   5  0.000      7.80460    19.85310    51.19590
   46   5  0.000      8.00510    27.57240    51.49640
   47   5  0.000      7.81630    35.49130    51.81060
   48   5  0.000      8.39690    42.44840    51.16010
   49   5  0.000     15.73030     4.39080    51.10570
   50   5  0.000     16.23650    12.81570    51.62850
   51   5  0.000     15.93260    19.79520    51.74930
   52   5  0.000     15.63590    27.63630    52.19220
   53   5  0.000     15.83530    34.45690    51.70100
   54   5  0.000     15.79390    42.50760    52.01310
   55   5  0.000     23.59380     4.61930    51.73040
   56   5  0.000     24.14920    12.81810    51.09520
   57   5  0.000     23.97550    20.02080    51.66650
   58   5  0.000     23.19580    27.80720    51.31570
   59   5  0.000     23.45300    35.28510    51.42800
   60   5  0.000     23.87630    42.80670    51.44840
   61   5  0.000     32.24260     4.27110    51.81430
   62   5  0.000     30.96940    12.78550    51.68390
   63   5  0.000     31.62920    19.69750    51.66840
   64   5  0.000     30.62640    27.39170    51.61920
   65   5  0.000     31.25340    35.21590    51.10070
   66   5  0.000     31.71920    42.86860    51.81660
   67   5  0.000     39.51460     4.71580    52.06520
   68   5  0.000     39.69460    12.69900    51.57270
   69   5  0.000     39.51290    19.90400    50.91120
   70   5  0.000     39.40210    27.45890    51.71010
   71   5  0.000     39.29500    34.99890    51.69510
   72   5  0.000     39.70900    42.61300    52.20660
   73   5  0.000      3.89910     0.81880    51.42070
   74   5  0.000      4.36060     8.18860    50.52100
   75   5  0.000      4.95550    16.77360    50.63800
   76   5  0.000      4.20910    23.77630    51.09800
   77   5  0.000      3.61140    31.19210    51.25280
   78   5  0.000      3.99100    38.65170    51.51550
   79   5  0.000     11.71570     0.73670    51.27520
   80   5  0.000     11.86150     8.41190    51.80950
   81   5  0.000     12.01530    16.31580    50.88800
   82   5  0.000     11.79360    23.64230    51.62270
   83   5  0.000     11.73260    31.35710    51.23460
   84   5  0.000     11.17230    39.07350    51.46450
   85   5  0.000     19.62110     0.32030    51.98800
   86   5  0.000     20.24010     8.51770    51.68160
   87   5  0.000     19.81510    16.18640    51.95530
   88   5  0.000     19.83030    23.53450    51.77090
   89   5  0.000     19.61900    31.05520    51.22280
   90   5  0.000     19.71790    39.02200    51.80030
   91   5  0.000     27.47480     0.63390    51.38960
   92   5  0.000     28.00570     8.51430    51.35540
   93   5  0.000     27.38400    16.27310    51.34080
   94   5  0.000     27.60990    23.51360    51.46110
   95   5  0.000     27.41330    30.93730    51.23320
   96   5  0.000     27.20260    38.51060    51.19470
   97   5  0.000     36.23410     0.82030    51.73080
   98   5  0.000     35.66330     8.61460    51.15860
   99   5  0.000     35.59430    16.00420    51.79390
  100   5  0.000     35.15560    23.87330    51.36580
  101   5  0.000     35.32620    31.51000    51.65230
  102   5  0.000     34.94130    39.32250    51.19070
  103   5  0.000     43.73400     0.14540    51.73260
  104   5  0.000     43.64220     8.30420    51.66490
  105   5  0.000     42.76440    16.29950    51.04930
  106   5  0.000     43.82370    23.22960    51.74070
  107   5  0.000     42.90930    30.83800    50.71430
  108   5  0.000     43.81410    38.83720    51.34540
  109   5  0.000      4.05150     4.47670    51.40060
  110   5  0.000      4.69450    11.87170    51.04220
  111   5  0.000      4.42890    19.91350    51.06200
  112   5  0.000      3.93600    27.36120    51.18030
  113   5  0.000      3.88620    34.94600    51.24930
  114   5  0.000      4.28290    42.44790    50.72190
  115   5  0.000     11.97640     4.60500    51.41880
  116   5  0.000     12.06080    12.44800    51.91760
  117   5  0.000     12.01040    20.09430    51.17870
  118   5  0.000     11.84770    27.73210    51.34090
  119   5  0.000     11.64420    35.17940    51.41430
  120   5  0.000     12.24470    42.71040    51.36760
  121   5  0.000     19.91060     5.25700    51.50760
  122   5  0.000     19.49230    12.66070    51.57160
  123   5  0.000     19.32140    19.97880    51.68380
  124   5  0.000     19.94810    27.09470    51.71380
  125   5  0.000     19.52460    35.56170    52.09970
  126   5  0.000     19.60390    42.60660    52.17800
  127   5  0.000     27.74850     4.55840    51.09440
  128   5  0.000     27.46470    12.31300    51.13840
  129   5  0.000     27.77540    19.57930    51.18550
  130   5  0.000     26.92260    27.88820    51.82150
  131   5  0.000     27.15300    34.81200    51.09280
  132   5  0.000     27.73860    42.47350    51.34930
  133   5  0.000     36.14290     4.81750    51.48630
  134   5  0.000     35.87330    12.21180    51.26460
  135   5  0.000     35.23210    19.94640    51.40850
  136   5  0.000     35.55570    27.48840    51.11800
  137   5  0.000     35.18710    35.09960    51.49230
  138   5  0.000     35.67970    42.50640    51.51010
  139   5  0.000     43.16790     4.78400    51.84950
  140   5  0.000     43.67730    12.07230    50.83370
  141   5  0.000     42.61120    19.57990    51.73150
  142   5  0.000     43.41200    26.93340    51.45640
  143   5  0.000     43.09820    34.82730    51.08070
  144   5  0.000     43.84240    42.41210    51.60640
  145   5  0.000      3.65590     2.89300    48.21480
  146   5  0.000      4.02650    10.91800    48.26590
  147   5  0.000      3.80870    18.10370    48.08050
  148   5  0.000      3.75930    25.83130    48.28660
  149   5  0.000      3.37410    33.64730    48.63110
  150   5  0.000      2.87640    40.94560    48.51630
  151   5  0.000     11.45130     2.75980    48.62150
  152   5  0.000     12.03450    10.29870    48.93680
  153   5  0.000     11.66370    17.57230    48.20330
  154   5  0.000     11.55690    25.39150    48.82780
  155   5  0.000     11.50210    33.13890    48.11720
  156   5  0.000     12.54370    40.51080    48.46030
  157   5  0.000     19.77350     3.48960    47.72760
  158   5  0.000     19.20770    10.41140    49.32900
  159   5  0.000     18.57680    18.12870    49.17630
  160   5  0.000     19.56210    25.37080    48.75640
  161   5  0.000     19.52810    33.17960    48.94290
  162   5  0.000     19.60350    40.34170    48.87810
  163   5  0.000     27.01110     2.85450    48.79860
  164   5  0.000     27.11110    10.27620    48.65300
  165   5  0.000     26.48690    18.18390    48.61960
  166   5  0.000     27.30130    25.83500    48.94230
  167   5  0.000     27.56110    33.33250    48.17450
  168   5  0.000     27.11660    40.82310    48.57710
  169   5  0.000     35.63520     2.71160    48.94060
  170   5  0.000     34.66500    10.48470    48.73330
  171   5  0.000     35.29810    17.95400    48.94400
  172   5  0.000     34.66630    25.39280    48.20940
  173   5  0.000     35.31110    33.38720    48.49820
  174   5  0.000     34.47090    41.16010    48.35390
  175   5  0.000     43.05620     2.55030    48.58710
  176   5  0.000     43.11500    10.34400    48.28230
  177   5  0.000     43.22290    18.13570    48.25070
  178   5  0.000     43.45870    25.65860    48.28700
  179   5  0.000     42.95980    33.46800    48.22420
  180   5  0.000     43.12700    40.68530    48.79640
  181   5  0.000      3.75230     6.24210    47.90200
  182   5  0.000      3.18730    14.49580    48.20810
  183   5  0.000      3.58830    21.82190    48.69740
  184   5  0.000      4.47390    29.42230    48.44390
  185   5  0.000      2.92620    37.01920    48.20140
  186   5  0.000      3.43430    44.72580    48.52780
  187   5  0.000     11.49530     6.81020    48.69020
  188   5  0.000     10.96390    13.74260    48.76490
  189   5  0.000     11.60730    21.76260    48.38160
  190   5  0.000     11.56390    29.32500    48.06040
  191   5  0.000     12.11780    36.78070    48.53190
  192   5  0.000     11.47350    44.29960    48.72420
  193   5  0.000     19.83020     6.87480    48.41090
  194   5  0.000     18.55850    13.92520    48.67810
  195   5  0.000     19.47060    21.91190    48.31810
  196   5  0.000     19.36290    29.12800    48.75230
  197   5  0.000     19.49180    37.04810    48.20800
  198   5  0.000     19.64520    44.50510    48.76550
  199   5  0.000     27.53690     6.70320    48.50860
  200   5  0.000     27.35660    14.21590    48.53580
  201   5  0.000     26.85200    21.70620    48.75270
  202   5  0.000     27.08440    29.42880    48.23260
  203   5  0.000     27.57330    36.70830    48.31800
  204   5  0.000     27.44820    44.65940    48.47730
  205   5  0.000     35.21620     6.66690    48.81190
  206   5  0.000     35.34390    14.30660    48.67600
  207   5  0.000     34.86990    21.58530    48.38760
  208   5  0.000     35.26500    29.58490    48.57090
  209   5  0.000     35.19180    37.09670    48.79490
  210   5  0.000     34.89380    44.52380    48.83870
  211   5  0.000     43.22980     6.67150    48.82470
  212   5  0.000     43.12770    14.29500    48.33590
  213   5  0.000     43.56200    21.60110    48.90150
  214   5  0.000     42.87640    29.49020    47.78630
  215   5  0.000     42.74900    37.38510    48.68170
  216   5  0.000     42.99500    44.68630    48.83760
  217   5  0.000      7.48910     2.73690    48.64690
  218   5  0.000      7.65580    10.56780    48.52880
  219   5  0.000      7.45770    17.94210    48.99560
  220   5  0.000      7.76730    25.74060    48.60450
  221   5  0.000      7.39300    33.56850    48.73010
  222   5  0.000      7.07060    40.73790    47.92200
  223   5  0.000     16.00510     2.47860    48.50510
  224   5  0.000     15.91480    10.33800    48.53830
  225   5  0.000     15.04790    17.80270    48.97010
  226   5  0.000     15.75820    25.02280    49.01760
  227   5  0.000     15.51130    32.90600    48.24090
  228   5  0.000     15.76600    40.90940    49.27230
  229   5  0.000     23.17550     3.06160    48.94860
  230   5  0.000     23.11500    10.08470    48.64720
  231   5  0.000     22.58880    18.28570    48.50970
  232   5  0.000     23.34610    25.65090    48.35790
  233   5  0.000     23.14140    33.32080    48.22550
  234   5  0.000     23.39290    40.92180    48.32500
  235   5  0.000     31.19290     2.94940    48.14290
  236   5  0.000     31.12830    10.51090    48.77190
  237   5  0.000     31.71100    18.58770    48.11100
  238   5  0.000     30.95210    25.76210    48.51250
  239   5  0.000     31.42490    33.30300    48.28100
  240   5  0.000     31.08990    41.17300    49.17790
  241   5  0.000     38.74660     3.28680    47.83170
  242   5  0.000     39.37380    10.60720    48.55230
  243   5  0.000     38.94680    18.06220    48.37980
  244   5  0.000     39.85740    25.74950    48.69540
  245   5  0.000     38.79200    33.08860    49.11330
  246   5  0.000     39.36090    40.53390    48.93690
  247   5  0.000     46.91690     3.05400    48.33030
  248   5  0.000     46.35310    10.90530    48.07410
  249   5  0.000     46.92200    17.73230    48.94980
  250   5  0.000     46.98030    25.41940    48.88740
  251   5  0.000     47.02470    33.39300    48.19610
  252   5  0.000     46.51620    40.71580    48.90120
  253   5  0.000      7.47710     6.75960    48.68090
  254   5  0.000      7.13450    14.29570    48.74960
  255   5  0.000      7.65530    22.10010    48.46680
  256   5  0.000      7.93190    29.83760    48.03170
  257   5  0.000      8.13660    37.05020    47.87810
  258   5  0.000      7.43130    44.47100    48.25770
  259   5  0.000     15.30320     6.32910    48.49850
  260   5  0.000     15.51880    13.69110    48.47330
  261   5  0.000     15.58430    21.83740    48.36550
  262   5  0.000     15.41100    29.21540    48.92680
  263   5  0.000     15.91490    37.03460    49.25060
  264   5  0.000     15.15180    44.33190    48.70810
  265   5  0.000     23.64280     6.47610    48.68030
  266   5  0.000     23.33120    14.08800    48.30040
  267   5  0.000     23.19610    21.68150    48.85280
  268   5  0.000     23.45450    29.46400    48.44000
  269   5  0.000     23.72610    37.13910    48.56080
  270   5  0.000     23.58800    44.78100    48.81650
  271   5  0.000     31.39920     6.47170    48.19970
  272   5  0.000     31.32500    14.33010    48.77860
  273   5  0.000     30.95380    21.73150    49.02510
  274   5  0.000     31.42280    29.08580    48.71880
  275   5  0.000     31.40310    37.22440    48.35370
  276   5  0.000     31.48690    44.41360    48.28070
  277   5  0.000     39.23860     6.81790    48.07850
  278   5  0.000     39.03880    14.55020    49.14300
  279   5  0.000     39.66800    22.19900    48.84970
  280   5  0.000     39.15600    29.46660    48.48540
  281   5  0.000     39.25150    36.98950    48.46020
  282   5  0.000     38.91080    44.77470    48.49300
  283   5  0.000      0.03540     6.54600    48.02780
  284   5  0.000     46.48120    14.27670    49.34320
  285   5  0.000     -0.00310    21.51690    48.61650
  286   5  0.000     46.71590    29.35140    48.29670
  287   5  0.000     46.29420    37.09830    48.55990
  288   5  0.000     46.60200    45.36650    48.74330
  289   3  0.000      1.96590     0.58130    52.34530
  290   3  0.000      1.50950     8.74970    52.69060
  291   3  0.000      0.68230    17.45680    52.72580
  292   3  0.000      0.59090    23.82890    53.00020
  293   3  0.000     46.77450    30.90550    53.19680
  294   3  0.000      0.35350    37.55370    52.87410
  295   3  0.000      7.50920     0.32600    52.90480
  296   3  0.000      7.81240     8.18770    53.41370
  297   3  0.000      8.92370    16.08680    53.52210
  298   3  0.000      7.68090    23.73780    53.53820
  299   3  0.000      7.46360    30.72220    52.99700
  300   3  0.000      9.03180    39.50450    52.79210
  301   3  0.000     14.56290     1.44290    52.60850
  302   3  0.000     16.87570     8.35510    52.41210
  303   3  0.000     15.19360    15.98110    52.32030
  304   3  0.000     15.59350    23.67480    53.89440
  305   3  0.000     15.82870    32.57950    52.92470
  306   3  0.000     15.92660    38.84950    53.40400
  307   3  0.000     23.70400     1.88250    53.40400
  308   3  0.000     23.86450     6.28650    52.71850
  309   3  0.000     22.93070    15.59950    53.46190
  310   3  0.000     23.78150    21.50590    53.02200
  311   3  0.000     23.19540    31.40660    52.78120
  312   3  0.000     24.42850    38.88690    53.00230
  313   3  0.000     32.78020     1.98060    51.74230
  314   3  0.000     32.27150     8.44940    53.73590
  315   3  0.000     32.18560    18.34520    61.23170
  316   3  0.000     31.13860    23.53220    53.45500
  317   3  0.000     32.11490    31.24240    52.69140
  318   3  0.000     31.12180    38.65200    53.30530
  319   3  0.000     40.29910    44.68130    52.56200
  320   3  0.000     39.03090     9.05570    53.22210
  321   3  0.000     39.09300    16.36870    53.64970
  322   3  0.000     39.47840    23.57060    53.52290
  323   3  0.000     39.53190    32.32540    53.34130
  324   3  0.000     40.01130    38.74210    53.46110
  325   3  0.000     44.34810     6.40920    52.03200
  326   3  0.000     46.90140    12.83680    54.09040
  327   3  0.000      2.94710    21.16310    53.43910
  328   3  0.000      1.11880    28.62970    52.87830
  329   3  0.000     46.72180    33.19620    51.81840
  330   3  0.000      1.41750    41.65500    53.34890
  331   3  0.000      8.08650     4.84620    52.94890
  332   3  0.000      6.63090    11.75920    51.99720
  333   3  0.000      8.72040    19.24020    52.85710
  334   3  0.000      7.77520    27.69160    53.25220
  335   3  0.000      9.18130    34.61120    52.53770
  336   3  0.000      8.06840    41.94040    52.84550
  337   3  0.000     16.44730     4.78400    52.71240
  338   3  0.000     15.93010    13.05720    53.34440
  339   3  0.000     15.04080    19.33490    53.21170
  340   3  0.000     16.38040    29.80230    53.09870
  341   3  0.000     16.40840    35.60770    52.97990
  342   3  0.000     15.54710    42.12980    57.82370
  343   3  0.000     25.84990     3.70170    53.89120
  344   3  0.000     23.37230     9.48450    52.36550
  345   3  0.000     24.62410    19.02520    52.90450
  346   3  0.000     24.97930    27.34840    51.20040
  347   3  0.000     23.32590    36.07290    53.03680
  348   3  0.000     23.77510    42.28450    53.16080
  349   3  0.000     32.75550     3.66120    53.49020
  350   3  0.000     31.54920    13.06570    53.35520
  351   3  0.000     31.14560    20.43040    53.25440
  352   3  0.000     28.93910    27.44540    52.31510
  353   3  0.000     32.01350    34.47660    52.56100
  354   3  0.000     31.12000    43.41070    53.39810
  355   3  0.000     39.24860     4.43460    53.85430
  356   3  0.000     39.30930    12.34070    53.22470
  357   3  0.000     38.60290    18.48940    52.34170
  358   3  0.000     38.84280    25.96130    52.62670
  359   3  0.000     39.18010    34.63960    53.37160
  360   3  0.000     39.73540    42.91800    54.01490
  361   3  0.000      4.98080     0.44350    52.75840
  362   3  0.000      6.19850     8.43180    51.74850
  363   3  0.000      2.08010    14.72460    50.71770
  364   3  0.000      3.84060    23.74360    52.83890
  365   3  0.000      3.66990    30.96200    53.04250
  366   3  0.000      6.21290    38.92500    51.80790
  367   3  0.000     10.27270     3.02720    53.55100
  368   3  0.000     12.42240     9.05910    53.36970
  369   3  0.000     11.98630    16.38330    52.65840
  370   3  0.000     11.00850    21.84050    52.18650
  371   3  0.000     10.70280    31.67660    52.65290
  372   3  0.000     11.45510    40.46210    52.74780
  373   3  0.000     20.55430     1.41730    53.12220
  374   3  0.000     20.57970     8.61920    53.52800
  375   3  0.000     19.87960    16.63030    53.71190
  376   3  0.000     21.59900    23.45460    51.72250
  377   3  0.000     17.69060    31.12680    51.51900
  378   3  0.000     20.43270    39.76010    53.63110
  379   3  0.000     26.95750     0.42400    53.04870
  380   3  0.000     27.15600     8.35660    52.81630
  381   3  0.000     27.68620    17.14400    52.85950
  382   3  0.000     27.39550    23.23110    53.16890
  383   3  0.000     27.02560    29.67210    52.59830
  384   3  0.000     26.92700    38.10520    52.86560
  385   3  0.000     35.11240     0.86970    53.05580
  386   3  0.000     35.29820     8.87370    52.84020
  387   3  0.000     36.39540    15.55610    53.25970
  388   3  0.000     34.28820    23.04600    52.66920
  389   3  0.000     34.68690    30.48150    52.95270
  390   3  0.000     34.25060    38.85590    52.81900
  391   3  0.000     43.40460    45.37200    53.43130
  392   3  0.000     43.16720     8.99850    53.30400
  393   3  0.000     41.27770    15.51930    52.31730
  394   3  0.000     43.10640    23.10870    53.34320
  395   3  0.000     41.21810    31.59050    51.63230
  396   3  0.000     44.25490    40.74590    56.62180
  397   3  0.000      3.15920     4.83520    52.91690
  398   3  0.000      3.62390    12.73590    52.19690
  399   3  0.000      6.06630    20.35190    52.32640
  400   3  0.000      4.21080    25.64380    50.24890
  401   3  0.000      4.99240    34.02430    52.46610
  402   3  0.000      4.53620    41.35780    52.15600
  403   3  0.000     12.13860     5.21230    53.23750
  404   3  0.000     11.85190    11.76500    53.49260
  405   3  0.000     12.03400    19.77990    52.86840
  406   3  0.000     11.20410    28.11050    52.91230
  407   3  0.000     12.35300    35.07740    53.43930
  408   3  0.000     12.25840    43.22850    53.01070
  409   3  0.000     19.08970     6.86940    52.30430
  410   3  0.000     18.04450    11.84000    52.29350
  411   3  0.000     17.85990    20.52870    52.71400
  412   3  0.000     18.95030    27.03770    53.17060
  413   3  0.000     20.08380    36.06180    53.96820
  414   3  0.000     20.32170    41.10380    53.55340
  415   3  0.000     28.63810     4.35490    52.59580
  416   3  0.000     25.95360    12.54720    52.17350
  417   3  0.000     27.40660    19.68370    53.00490
  418   3  0.000     26.33110    27.10230    53.52150
  419   3  0.000     26.67310    36.71800    50.38590
  420   3  0.000     27.12780    42.17070    52.99240
  421   3  0.000     35.76240     4.91050    53.26400
  422   3  0.000     34.86400    12.19990    52.70450
  423   3  0.000     35.90460    19.70600    53.04150
  424   3  0.000     35.51080    27.04560    52.82620
  425   3  0.000     35.01240    35.90410    52.99530
  426   3  0.000     35.10400    41.25520    52.69190
  427   3  0.000     43.30380     3.60770    53.15940
  428   3  0.000     44.48960    12.10350    52.39900
  429   3  0.000     43.83610    19.46430    52.98140
  430   3  0.000     43.32390    27.36460    53.15740
  431   3  0.000     45.08570    35.36940    51.11300
  432   3  0.000     43.62460    42.68620    53.35360
  433   3  0.000      3.91480     3.31920    46.45820
  434   3  0.000      3.19530    11.52410    46.89700
  435   3  0.000      4.36360    18.71120    46.43890
  436   3  0.000      4.32720    25.78000    46.65060
  437   3  0.000      4.51450    31.29290    48.86980
  438   3  0.000      2.85810    39.21310    47.86080
  439   3  0.000     12.26010     2.88480    47.06060
  440   3  0.000     11.66290    12.82030    43.91330
  441   3  0.000      8.06270    15.65640    40.88900
  442   3  0.000      9.94690    26.01620    48.49070
  443   3  0.000     10.59180    32.48440    46.76070
  444   3  0.000     11.61310    39.45660    47.31960
  445   3  0.000     20.44440     2.72930    46.37860
  446   3  0.000     19.66660    10.45190    47.45870
  447   3  0.000     18.80780    17.97480    47.41820
  448   3  0.000     17.68980    25.93540    48.66680
  449   3  0.000     20.12220    32.02710    47.46690
  450   3  0.000     18.97760    39.06160    47.70440
  451   3  0.000     26.83640     1.39470    47.21220
  452   3  0.000     26.51190    11.05630    46.94560
  453   3  0.000     27.38300    17.40270    47.33620
  454   3  0.000     29.26590    25.49100    48.04070
  455   3  0.000     26.63450    32.24520    47.02620
  456   3  0.000     27.99900    40.71970    47.03640
  457   3  0.000     36.65010     3.40830    47.68560
  458   3  0.000     32.87650    11.33820    48.27570
  459   3  0.000     35.28790    15.92740    49.58090
  460   3  0.000     35.66030    25.85970    46.88200
  461   3  0.000     36.46010    33.47600    47.11060
  462   3  0.000     35.40650    41.42280    46.93550
  463   3  0.000     43.05070     4.27650    48.07090
  464   3  0.000     43.26420    12.57550    48.14960
  465   3  0.000     41.83930    18.63110    47.07130
  466   3  0.000     43.99610    26.70130    46.88930
  467   3  0.000     42.97580    34.16010    46.65440
  468   3  0.000     44.80510    40.93560    47.91810
  469   3  0.000      4.78290     5.11560    47.08750
  470   3  0.000      4.19730    14.42810    46.78510
  471   3  0.000      3.52810    21.85260    46.95020
  472   3  0.000      5.35960    29.17080    46.94890
  473   3  0.000      4.25310    37.33790    47.09420
  474   3  0.000      3.03190    44.54700    46.83030
  475   3  0.000     12.13050     7.60860    47.28200
  476   3  0.000     12.68080    14.64770    45.46330
  477   3  0.000     11.00970    23.65720    47.73190
  478   3  0.000     10.98910    29.32540    46.44040
  479   3  0.000     12.19160    36.34670    46.74460
  480   3  0.000     11.62560    45.07460    46.86490
  481   3  0.000     20.13780     8.54780    49.52690
  482   3  0.000     19.28380    15.06850    47.52250
  483   3  0.000     19.48690    21.64690    46.58930
  484   3  0.000     19.03760    28.72830    47.14770
  485   3  0.000     19.83280    38.49460    49.90360
  486   3  0.000     18.08460    45.03150    48.25780
  487   3  0.000     27.25780     6.36800    46.71990
  488   3  0.000     27.70550    14.49970    46.83980
  489   3  0.000     26.27710    22.41590    47.19910
  490   3  0.000     25.27260    25.89060    48.84600
  491   3  0.000     27.16450    35.26060    47.43580
  492   3  0.000     27.51670     0.25050    46.53410
  493   3  0.000     35.42490     6.53300    46.97860
  494   3  0.000     35.70240    14.29830    46.86530
  495   3  0.000     34.37110    21.09860    46.79470
  496   3  0.000     34.82930    31.22370    47.79200
  497   3  0.000     35.71180    37.13140    47.09550
  498   3  0.000     34.05720    44.89480    47.35310
  499   3  0.000     43.03150     8.39060    47.44100
  500   3  0.000     43.68850    16.49370    47.14720
  501   3  0.000     39.43230    22.44980    43.38490
  502   3  0.000     42.85140    28.35090    46.34670
  503   3  0.000     43.37880    39.16420    47.46480
  504   3  0.000     43.45620    44.97100    47.17570
  505   3  0.000      8.34590     2.17190    47.08860
  506   3  0.000      8.29180    10.46150    46.91400
  507   3  0.000      8.02380    22.98220    46.93250
  508   3  0.000      7.29910    27.52030    48.36160
  509   3  0.000      7.14720    33.14190    46.93670
  510   3  0.000      6.90520    40.51170    46.20330
  511   3  0.000     15.60950     2.37250    46.75710
  512   3  0.000     15.84710    10.28110    46.59520
  513   3  0.000     16.07720    21.84070    46.65750
  514   3  0.000     14.51820    27.13140    49.04540
  515   3  0.000     15.07990    34.98940    48.43990
  516   3  0.000     14.28520    41.92290    48.88160
  517   3  0.000     22.72650     2.52500    47.29660
  518   3  0.000     23.06020     9.85650    46.69580
  519   3  0.000     22.26860    18.28500    46.67070
  520   3  0.000     21.22010    25.89950    48.44720
  521   3  0.000     20.25940    36.12500    46.86510
  522   3  0.000     23.13270    40.86160    46.62200
  523   3  0.000     30.25840     4.80330    47.47220
  524   3  0.000     31.79840     8.44690    48.12610
  525   3  0.000     35.60140    20.05120    49.31090
  526   3  0.000     31.26730    27.58140    47.72930
  527   3  0.000     31.82260    34.32750    46.83340
  528   3  0.000     32.14740    42.55020    48.00060
  529   3  0.000     39.61730     3.87180    46.23070
  530   3  0.000     37.79490    10.41260    47.60090
  531   3  0.000     39.32520    18.79600    46.79610
  532   3  0.000     41.60260    26.53660    47.87150
  533   3  0.000     39.28880    32.18960    47.26080
  534   3  0.000     37.08690    44.58020    49.07970
  535   3  0.000      0.72570     1.92730    47.34790
  536   3  0.000     46.58250     7.17780    46.53910
  537   3  0.000     45.05640    18.58010    48.37170
  538   3  0.000     45.34140    24.66450    48.17520
  539   3  0.000     46.45720    31.32820    48.62030
  540   3  0.000     45.74350    38.84200    48.14030
  541   3  0.000      7.10840     6.50010    46.95120
  542   3  0.000      6.67650    15.21740    47.28800
  543   3  0.000      9.38720    21.68710    48.68990
  544   3  0.000      7.32490    30.09830    46.41530
  545   3  0.000      8.23670    37.15990    46.14470
  546   3  0.000      8.20860    44.47200    46.69560
  547   3  0.000     15.91390     6.35300    46.82390
  548   3  0.000     17.25600    13.57410    47.40540
  549   3  0.000     15.12670    23.88220    47.39940
  550   3  0.000     16.16080    28.56500    47.53390